ITEM: TIMESTEP
90000
ITEM: NUMBER OF ATOMS
8000
ITEM: BOX BOUNDS pp pp pp
0.0000000000000000e+00 2.7564674686161492e+01
0.0000000000000000e+00 2.7564674686161492e+01
0.0000000000000000e+00 2.7564674686161492e+01
ITEM: ATOMS id type x y z
6919 1 0.245149 0.571571 0.902227
6969 1 0.0175847 0.219657 1.84156
1883 1 4.93193 0.569065 1.36587
59 1 5.47795 0.298231 2.23453
19 1 5.38049 0.979014 0.503913
955 1 6.51737 0.432169 2.18777
967 1 5.95977 0.761015 1.36445
1089 1 5.33392 1.32135 1.95352
108 1 5.87771 1.05721 2.80473
2009 1 6.37262 1.48963 1.94239
79 1 6.46566 1.14831 0.546037
15 1 4.53948 0.73908 2.29774
4 1 5.78415 1.75951 1.0886
2063 1 4.92018 1.44882 2.97246
2321 1 5.68767 2.11261 2.57892
6015 1 6.67019 0.159646 0.761409
1948 1 5.75891 1.84913 0.0273508
109 1 6.60003 1.81036 2.88138
64 1 6.28177 2.54448 1.72173
960 1 6.82887 2.03414 0.109483
914 1 6.08538 0.0489593 3.03555
27 1 0.428948 9.99905 0.492389
2082 1 0.506295 10.7072 2.24416
2088 1 0.898175 9.95592 1.47212
2929 1 0.982488 10.8335 0.84692
14 1 1.3715 10.5032 2.79596
920 1 1.48201 9.89961 0.573613
80 1 1.76164 9.51052 2.47158
2134 1 1.93018 9.8689 1.54158
114 1 1.48873 10.7468 1.80524
85 1 2.07476 10.6965 0.927987
2143 1 2.36757 10.3531 2.36431
2077 1 2.48103 9.73917 0.6631
2076 1 2.72982 9.36641 1.99285
1010 1 2.94306 10.2496 1.47306
135 1 3.0414 11.0141 2.91507
2087 1 3.34876 10.0879 2.4775
929 1 0.0609335 10.5401 1.30799
2177 1 2.59854 9.58684 3.0422
2982 1 2.65989 10.6036 0.0696345
2074 1 1.60768 10.8133 0.0069783
103 1 3.479 10.2059 0.577934
2266 1 2.45133 11.1922 1.76638
2988 1 3.05821 11.1238 0.90583
923 1 2.05565 11.2936 2.72202
2081 1 0.773876 11.5186 1.65437
227 1 1.01534 11.4886 2.67869
2996 1 0.622246 11.8046 0.663335
2942 1 0.915957 12.5435 2.34401
3906 1 0.815199 12.8737 0.383745
2042 1 1.03397 12.4834 1.2773
5906 1 0.272031 13.6828 0.833115
2046 1 0.498143 13.2638 1.73817
2948 1 1.6904 11.9466 1.9709
2241 1 1.81072 12.9694 2.72915
1105 1 1.95775 12.9101 1.71478
1962 1 1.60338 11.6313 1.00769
3957 1 1.88962 12.6714 0.70071
2900 1 2.50148 12.086 1.24703
2033 1 2.33962 11.5954 0.336587
2127 1 2.89072 11.9599 2.39055
45 1 1.30897 13.4927 1.11984
149 1 1.36756 13.7026 2.14262
2086 1 0.00650244 11.6315 2.94696
145 1 0.0215867 12.1213 1.98361
888 1 1.45636 12.0081 0.0459336
2041 1 0.0330569 12.5946 1.05429
974 1 3.44767 11.0393 1.94292
6214 1 0.0148539 0.899078 5.43613
18 1 6.86717 0.846169 4.40629
159 1 6.81345 0.891285 3.28651
169 1 5.1266 0.45513 3.21401
2051 1 5.98171 1.44817 4.53428
3096 1 5.96105 0.717646 3.81935
219 1 6.58015 0.147586 5.65584
104 1 5.13348 0.246537 4.26544
168 1 5.98242 0.454338 4.84887
1195 1 5.072 1.02439 4.97551
2260 1 5.73024 0.750177 5.79823
6410 1 4.93109 1.23656 3.97813
2112 1 5.70469 1.78842 3.56598
2162 1 4.92188 1.34461 5.96884
2107 1 5.7241 1.75482 5.47694
3148 1 6.6012 1.15336 5.35764
2113 1 5.1204 2.01099 4.67788
3044 1 6.74569 1.7614 3.89001
267 1 5.12981 0.0320872 5.29413
72 1 0.529933 10.8465 3.29924
226 1 0.654266 10.8622 4.30886
272 1 0.586246 10.36 5.20846
115 1 0.396989 10.9734 6.04313
128 1 1.28087 10.1967 3.77656
23 1 1.57675 10.5139 4.71817
129 1 1.45811 9.82545 5.54018
25 1 2.21896 10.501 3.3773
2121 1 1.62972 9.50772 4.54288
984 1 1.66768 9.28357 3.4811
211 1 1.77054 8.84089 5.3722
119 1 2.38952 9.96213 5.08896
20 1 2.50743 9.70143 4.04461
3011 1 2.07664 8.46274 4.38127
125 1 2.38515 9.47616 6.00538
2294 1 1.98893 10.7251 5.68817
124 1 2.55656 10.6784 4.31122
216 1 2.97113 10.8499 5.28057
2226 1 3.2916 9.74989 5.55767
230 1 3.22676 10.2193 3.53026
3009 1 3.35223 10.0727 4.5539
1110 1 0.946219 13.4452 3.06743
2099 1 1.41954 11.1931 3.63673
2098 1 1.00171 11.3566 5.14974
2244 1 1.68505 13.139 3.75191
140 1 1.31268 12.2859 3.33194
183 1 0.514208 12.039 5.8368
2037 1 0.55599 11.7774 3.86167
144 1 0.309972 12.0916 4.81391
2146 1 1.2325 12.3837 4.38622
2142 1 0.274932 12.6325 3.32912
1257 1 1.27262 13.3991 5.78626
3053 1 0.499386 13.2391 5.08791
2047 1 0.697456 13.2437 4.06153
137 1 1.48988 13.3389 4.76529
3052 1 1.41705 12.3647 5.42377
143 1 1.85991 11.5291 4.52901
100 1 2.42735 11.4968 3.68224
35 1 2.25009 11.6955 5.47526
90 1 2.91959 11.6449 4.62813
2191 1 3.40288 11.1314 3.85787
245 1 1.38449 11.497 6.10548
266 1 0.196893 0.281785 6.24225
311 1 0.50822 0.145475 7.25494
2053 1 4.88554 0.329533 6.25709
2208 1 6.28264 1.50068 6.31246
258 1 5.3574 0.241955 9.1116
434 1 6.04221 1.75603 7.28919
173 1 6.28614 0.430874 6.59305
2216 1 4.99301 0.225753 7.29313
2356 1 6.21267 1.63171 8.30292
327 1 6.44068 0.317259 7.62486
270 1 6.17368 0.621724 8.63464
328 1 4.72729 0.56881 8.2977
160 1 5.61271 0.956232 7.79595
2256 1 5.44145 1.02117 6.80214
370 1 5.38294 1.22405 8.79421
2304 1 6.86847 1.17257 7.14477
406 1 6.86902 1.25737 9.09825
240 1 0.025771 10.4087 8.1876
372 1 0.715828 9.9779 6.30294
117 1 1.42301 9.13382 6.29946
130 1 2.85542 10.3773 6.26822
334 1 0.193113 9.91945 9.10723
176 1 0.346613 10.0924 7.2931
290 1 0.686573 9.55048 8.11562
315 1 1.02252 10.4228 8.60537
2231 1 1.07827 10.8262 6.91364
165 1 1.27708 9.55003 7.2562
235 1 1.70833 9.71437 8.26316
2071 1 1.75081 10.121 6.49433
390 1 2.0661 10.6429 8.47273
2242 1 1.90823 10.3819 7.46947
180 1 2.62454 9.71426 6.99876
174 1 2.39025 9.82253 9.05119
330 1 2.69875 9.91948 8.03097
3002 1 2.94807 10.6611 7.31508
225 1 3.07439 10.8976 8.34569
2306 1 1.19755 9.53368 9.10193
340 1 0.839214 12.226 8.82259
194 1 1.22893 12.5178 6.43681
2187 1 3.02164 11.4248 6.15555
186 1 0.316272 11.1026 7.53326
3151 1 0.555966 13.0091 8.12169
1154 1 1.54257 13.0934 8.48663
3008 1 1.69489 12.0825 8.20847
1130 1 0.241557 13.7306 7.43396
250 1 0.431098 12.7408 7.10048
1254 1 0.697079 13.5208 8.97808
2239 1 2.39489 12.3844 7.52195
243 1 1.5317 11.8012 7.14457
337 1 1.40685 11.3612 8.942
2291 1 1.39759 12.8224 7.46186
293 1 0.731659 12.0306 7.80317
2228 1 2.17489 11.0594 6.69195
2281 1 1.29811 11.1202 7.92554
2343 1 2.42315 11.611 8.79132
193 1 0.563164 11.7278 6.77867
2186 1 2.29713 12.0539 6.50051
1303 1 0.418365 11.323 8.51506
50 1 1.03337 13.5633 6.79041
247 1 0.351862 13.0764 6.12683
343 1 2.31116 11.3425 7.79334
2477 1 5.87836 0.417504 11.6095
2362 1 6.10748 0.796868 10.6725
1395 1 5.34233 1.20944 11.1967
518 1 4.81108 0.33823 11.4168
224 1 6.04578 0.804569 9.62364
214 1 6.4747 1.6408 11.1317
1346 1 5.26476 0.359865 10.1927
2302 1 5.41004 1.38702 10.1963
358 1 6.67961 1.48113 10.1145
319 1 6.01565 1.80088 9.355
1393 1 4.46748 0.920038 10.5972
368 1 4.64875 0.877735 9.53965
513 1 6.78114 0.835202 11.7942
2366 1 6.8483 0.0871946 10.3615
2416 1 6.835 0.13452 9.30694
393 1 0.632683 10.8333 9.46172
228 1 0.503613 10.4391 10.8229
364 1 0.478241 10.4455 11.855
335 1 0.890379 9.96194 9.96709
300 1 1.45565 10.0034 10.8379
399 1 1.49743 10.0424 11.8775
285 1 1.88062 9.62073 9.92649
2383 1 1.69493 10.5004 9.43536
324 1 2.24716 10.5585 11.345
2391 1 2.20832 10.5121 10.3157
349 1 1.26302 10.9115 10.3131
500 1 1.28076 10.9326 11.3431
2608 1 2.43504 9.52054 10.8155
2471 1 2.77287 9.71321 11.7726
3402 1 2.9436 9.89432 9.91364
6474 1 1.98917 9.07494 11.6587
495 1 3.15003 10.2726 10.9187
338 1 3.19441 10.7609 11.9179
2327 1 2.7117 10.7484 9.33
380 1 0.27132 11.2928 10.2871
333 1 0.237116 11.2968 11.3134
275 1 2.05281 11.4418 10.8249
1308 1 1.99931 11.4881 11.8879
428 1 1.01307 11.8054 11.8611
446 1 1.04244 11.8119 10.8079
1353 1 1.0318 11.8123 9.77112
232 1 0.067584 11.7687 9.35964
378 1 0.279777 12.344 10.2358
1451 1 0.257413 12.3649 11.2909
3451 1 0.252493 13.4504 11.2736
397 1 0.317339 13.3955 10.1928
1354 1 1.01928 12.8812 10.7746
1258 1 1.01754 12.9208 11.8155
274 1 1.05124 12.8693 9.70696
344 1 1.75855 12.3622 11.3076
1463 1 1.75191 13.4295 11.3371
445 1 1.75915 12.3385 10.2701
294 1 1.78515 13.4152 10.2938
2236 1 2.0255 11.4235 9.79118
1153 1 0.0804412 12.8025 9.32657
1109 1 2.06545 13.5339 9.29559
385 1 1.78511 12.3119 9.22219
621 1 0.249791 0.703517 14.3093
622 1 0.00542507 0.778949 13.2904
464 1 5.39089 1.08998 12.267
558 1 5.2256 0.0762926 12.3197
305 1 6.77694 0.138791 13.3493
415 1 6.17802 0.478893 12.5859
507 1 6.06581 0.777395 14.8984
405 1 5.3881 1.2132 14.1185
524 1 5.95896 0.237565 14.0034
413 1 6.30802 1.06504 13.4631
6679 1 5.37099 0.679735 13.2283
3496 1 4.93287 0.290848 14.1221
555 1 5.00148 0.798774 15.0028
3542 1 6.88459 0.659695 14.2627
450 1 2.18214 9.5561 12.5562
440 1 1.2077 10.9263 12.412
175 1 2.21551 10.6095 12.413
2257 1 1.3256 10.0683 12.9387
374 1 0.360227 10.4265 12.8832
444 1 0.928914 10.1987 14.6773
439 1 1.16285 10.7319 13.8116
483 1 2.18521 10.5469 13.4707
384 1 1.59861 9.79255 13.8899
540 1 1.79584 9.63544 14.9278
2626 1 1.93745 10.5515 14.4993
628 1 1.82708 8.93992 13.3237
534 1 2.20407 8.96022 14.2629
585 1 3.23511 10.4081 13.7343
280 1 2.62378 9.57292 13.5204
2421 1 2.9386 10.888 14.612
489 1 2.74993 9.87266 14.5134
582 1 3.1036 10.1219 12.7381
442 1 0.257371 10.9462 14.3971
7235 1 2.58085 9.07933 15.25
530 1 0.349939 10.0365 13.8455
2481 1 1.18014 11.2046 14.7483
542 1 0.190628 11.305 13.3739
528 1 0.216007 11.327 12.3555
2500 1 1.90272 11.4591 14.0161
587 1 2.15108 11.4436 15.0859
499 1 1.95941 11.4311 12.9823
398 1 0.238594 12.3747 12.3226
1452 1 0.237391 13.4537 12.3162
1413 1 1.7109 13.4171 12.3721
6345 1 1.69331 12.3353 12.3976
2386 1 0.946567 11.8142 12.9199
1458 1 0.874637 11.803 13.9639
545 1 1.5344 12.3653 14.5276
3461 1 0.177404 13.4159 13.3897
549 1 0.169642 12.3385 13.3917
2541 1 0.615716 13.4608 14.7473
1455 1 0.546931 12.3719 14.7979
443 1 0.939262 12.9136 12.8624
492 1 0.854502 12.9033 13.9037
449 1 1.68818 13.4003 13.4271
448 1 1.64495 12.3351 13.4725
2491 1 1.64832 13.3839 14.4444
566 1 0.339373 0.526108 16.3229
6686 1 0.63191 0.464004 17.2941
616 1 0.0104282 0.0347025 18.0367
554 1 6.20437 0.0518111 16.5408
815 1 5.50578 0.552952 17.8055
658 1 5.60437 0.441828 15.8001
475 1 6.23772 1.35947 15.7935
2622 1 5.74983 0.99957 16.7349
2617 1 6.45286 0.983577 17.607
2621 1 6.66474 0.408802 15.6656
2551 1 6.77962 0.947746 16.6279
1699 1 5.24672 0.0540424 16.9291
573 1 0.143456 10.3603 15.3233
5501 1 2.44828 10.4042 15.3778
635 1 1.09784 10.6505 15.6136
630 1 0.358907 10.5005 16.3402
771 1 0.434203 10.522 18.2418
684 1 0.524333 10.8959 17.2828
520 1 1.15823 10.0996 17.5872
574 1 1.35163 10.5782 16.6396
2581 1 1.72783 9.88141 15.935
2718 1 1.86434 9.67217 16.9222
730 1 2.06799 9.73152 17.9535
2747 1 2.07656 10.6134 17.4142
2726 1 2.42266 10.4756 16.4476
430 1 2.65918 9.4905 16.2048
2526 1 2.85687 9.90348 17.2028
614 1 3.0402 9.89384 18.2692
2518 1 3.03516 10.7926 17.7367
531 1 0.82623 11.4154 16.3267
2631 1 1.82224 11.2841 16.1107
1605 1 1.41813 13.0125 17.1814
672 1 1.35455 11.0404 18.068
2681 1 2.86768 11.272 15.858
699 1 0.458368 13.6679 17.1507
6640 1 1.51043 11.4668 17.1141
533 1 1.61686 12.3847 16.3224
2721 1 2.28022 11.5331 17.883
543 1 1.26645 11.9023 15.4667
539 1 2.7458 12.2408 16.262
541 1 1.22338 12.9297 15.3992
694 1 0.550094 12.804 17.7385
692 1 0.765291 12.1829 16.9848
1555 1 0.744776 13.0019 16.3476
583 1 0.507011 11.7348 17.8963
650 1 2.31885 12.5247 18.2136
725 1 2.58269 11.4161 16.8743
2486 1 1.44214 12.2021 17.8361
1659 1 1.4188 13.1462 18.235
482 1 0.11581 12.1687 16.1697
493 1 0.358118 11.3765 15.3756
648 1 2.16157 12.4376 15.3958
1559 1 2.20269 12.3255 17.1559
2591 1 0.145449 12.9631 15.5
1749 1 5.3373 0.567516 19.6796
2858 1 5.473 1.07686 18.7107
2871 1 6.41395 0.437697 21.1559
669 1 5.0248 0.61019 20.7252
3741 1 6.70429 0.428784 20.1444
2710 1 6.27238 1.06111 19.4219
856 1 5.93206 1.07301 20.4583
2656 1 6.29403 0.503483 18.4993
3746 1 5.34401 0.0557845 18.7419
665 1 6.81229 1.38875 18.5751
785 1 0.775573 10.3271 20.3013
683 1 0.55383 10.387 19.2935
2716 1 0.918189 10.1789 21.342
744 1 1.54108 10.844 19.1853
775 1 1.4311 9.85903 19.6205
693 1 1.74417 10.6909 20.2197
735 1 1.61266 9.76243 20.639
724 1 2.32182 10.4698 21.0553
6674 1 2.50507 10.6217 19.5295
720 1 2.25287 9.74186 18.964
2717 1 2.35109 9.40129 19.9411
714 1 2.56322 9.45625 20.9465
677 1 1.31918 10.0379 18.5965
750 1 3.02154 10.16 20.3201
2743 1 3.26866 10.8131 18.7312
2727 1 3.261 9.91757 19.2977
2883 1 3.29607 10.1566 21.3441
675 1 2.26426 10.6622 18.4541
739 1 0.0404772 10.7402 20.918
2643 1 3.48942 10.9035 19.735
2689 1 3.7552 10.914 20.7199
794 1 1.03102 11.1237 20.9281
795 1 2.77726 11.1732 20.3653
830 1 2.99215 11.1963 21.3709
570 1 0.903803 11.2794 19.8764
1566 1 0.430121 13.4773 18.4945
763 1 0.698723 11.342 18.8243
599 1 2.76595 11.7134 18.9054
700 1 2.00888 11.4867 20.9894
595 1 0.231043 11.683 20.5616
749 1 2.08521 11.5701 19.6976
844 1 1.2287 12.0659 20.6381
1655 1 0.196588 11.9768 19.5343
798 1 0.487892 12.4355 21.3174
1652 1 0.162729 13.4164 19.5567
1708 1 0.414473 12.6555 20.251
2797 1 0.619323 13.4335 20.9401
1707 1 1.34254 13.0972 20.245
2647 1 0.832576 12.3967 18.6678
1557 1 1.15133 13.1838 19.2527
1602 1 1.24684 12.2135 19.6198
698 1 1.42677 12.8471 21.2944
6695 1 1.68495 11.7661 18.7633
680 1 2.16148 12.4487 20.2864
625 1 2.20037 12.5294 19.2527
551 1 5.94565 1.40696 21.4933
964 1 6.14204 1.78635 23.5487
1788 1 6.03714 0.791563 23.269
1849 1 5.27523 0.491498 23.9594
751 1 6.0249 1.57347 22.5461
3787 1 6.65251 0.883045 22.1224
765 1 5.58643 0.663507 22.1996
2802 1 6.088 1.04528 24.3014
2852 1 5.38388 0.0209957 22.9965
1794 1 6.82905 0.229931 22.8833
2841 1 0.0455651 10.8726 22.9297
664 1 1.85366 9.78551 21.6667
2666 1 1.62578 10.8347 21.7281
893 1 0.234922 10.9844 23.9277
849 1 0.975193 10.5968 23.2815
639 1 1.07519 10.1251 22.3614
2847 1 1.17927 10.6243 24.3018
789 1 1.86956 10.8499 22.7241
2786 1 1.91135 10.295 23.6077
729 1 2.13244 9.81375 22.6835
874 1 1.27054 9.55357 23.227
2766 1 2.58736 10.5139 22.0419
2846 1 2.83437 10.5254 23.0994
740 1 2.84938 9.97511 24.0158
2837 1 2.56926 10.9863 23.9966
833 1 0.165891 10.4862 21.9645
835 1 3.54466 10.2198 22.3684
780 1 3.76288 10.1854 23.5982
2836 1 3.9261 10.9135 21.7136
823 1 3.21198 11.2629 22.4437
2787 1 0.891417 11.1657 22.3951
800 1 0.314839 11.4314 21.6093
2886 1 1.68387 11.3427 23.6451
779 1 1.32257 11.8677 21.6744
848 1 0.696799 11.6352 23.2851
890 1 0.930144 11.6852 24.2822
3652 1 1.57694 11.8769 22.7283
846 1 0.614399 12.1871 22.3425
1754 1 0.67705 13.2412 21.9656
1759 1 0.527182 13.632 22.9108
894 1 0.45014 12.6383 23.3103
1803 1 0.11778 13.468 23.877
1703 1 1.16408 13.3718 23.6933
2891 1 0.649755 12.6825 24.3152
895 1 1.41682 12.3484 23.6672
2697 1 2.04427 12.5572 22.1075
2798 1 1.27568 12.907 22.7602
935 1 2.30593 11.5536 22.0639
2983 1 2.38881 12.0483 24.024
784 1 2.52953 11.5736 23.1212
840 1 3.30644 11.6508 24.3729
2881 1 3.46557 11.1974 23.457
2702 1 6.05262 0.407073 27.5122
2756 1 6.20038 2.04745 24.5716
1949 1 5.59786 0.0740942 26.6266
915 1 6.49994 2.10805 25.5617
753 1 6.64522 0.292321 24.8537
1082 1 5.00197 0.196001 27.4724
2807 1 5.80882 1.35343 25.2362
2811 1 5.06881 0.606371 25.0022
858 1 6.09601 0.481097 25.7088
925 1 6.62611 0.304055 26.6236
912 1 5.39975 1.04374 27.0245
859 1 5.17522 0.843081 26.0478
3897 1 6.43062 1.24669 27.0371
2976 1 5.88835 1.61005 26.2286
760 1 6.77605 1.29002 25.0278
2184 1 6.78521 2.11881 26.5676
903 1 6.79716 1.2032 26.0466
29 1 0.024582 10.3319 25.6297
3851 1 0.414455 10.9306 27.5477
824 1 2.20146 10.3429 24.7115
2878 1 3.2087 10.6519 24.7229
39 1 0.17173 10.449 26.6393
943 1 0.461406 10.9752 24.9394
2977 1 0.972343 10.0391 26.0186
884 1 0.775934 9.90747 25.0111
2123 1 0.97244 10.0714 27.1929
2937 1 1.42453 10.6982 25.3391
969 1 1.68595 10.5272 26.5711
2022 1 2.03281 9.89595 27.2605
2021 1 2.25714 10.077 25.7323
2018 1 2.74343 10.378 26.6238
2741 1 2.9441 9.6818 25.0724
924 1 2.51136 9.37241 26.4553
979 1 3.07845 9.65405 27.3338
889 1 3.23024 10.4427 25.7197
28 1 3.61145 10.4988 27.1852
2027 1 3.58897 9.80244 26.429
1955 1 1.05931 12.8184 26.3934
3903 1 1.06959 11.3612 26.8708
1907 1 2.00587 13.2577 26.2941
934 1 2.5439 12.0266 25.0413
1859 1 0.693068 11.047 25.9676
975 1 2.45834 11.0314 25.4034
2992 1 1.0997 11.7055 25.2636
2926 1 1.70862 11.4184 26.0469
787 1 0.485702 12.0607 25.9823
2023 1 3.37637 11.1875 26.4593
2084 1 1.76276 12.4049 25.6814
40 1 0.570003 12.2315 27.1154
878 1 2.36674 11.285 26.9
995 1 1.60825 13.0515 27.3294
1860 1 0.821849 12.7496 25.3423
1953 1 0.276139 13.4868 24.8917
70 1 3.29921 11.4782 27.4512
2028 1 2.65892 11.8606 26.0932
1960 1 0.246095 13.3484 25.9946
1000 1 0.389185 13.3281 27.0411
2031 1 1.92856 12.2466 26.6957
793 1 1.34215 13.4252 24.7159
2896 1 1.84307 11.3557 24.6628
2986 1 1.59183 12.3683 24.6803
1753 1 0.166745 11.9787 24.9585
3911 1 1.22403 13.6627 25.7239
930 1 3.45711 11.4316 25.418
3001 1 0.560888 14.682 0.597252
3207 1 0.585847 14.2965 2.56002
148 1 0.799079 14.3148 1.53213
1054 1 1.04576 13.875 0.203598
7163 1 3.21282 18.4684 1.74981
7139 1 3.10293 18.473 2.77225
7050 1 3.36735 17.8672 0.40351
7063 1 3.31761 17.3489 2.70334
5240 1 3.42386 17.3928 1.64982
7090 1 2.7906 18.66 0.00481546
7110 1 4.95137 16.6994 1.11745
7153 1 3.86204 16.6032 2.18724
1966 1 3.53636 18.8326 0.79885
7903 1 4.02892 17.1318 0.804211
7165 1 3.97515 18.0541 2.28012
7124 1 4.10121 19.0191 1.76224
7953 1 4.04415 18.0747 1.22273
7115 1 4.49516 17.3209 1.74243
7123 1 4.73676 17.8888 0.485384
7018 1 4.81539 16.8081 0.126189
1117 1 4.88414 18.3076 1.82154
6099 1 5.33528 17.4962 2.33877
7118 1 5.44598 17.6221 1.26655
7952 1 5.66378 17.5036 0.18935
3072 1 5.66878 18.441 0.685677
1107 1 5.75786 18.4242 2.45372
1167 1 6.26828 17.7135 1.91292
1166 1 6.40941 17.6862 0.88765
7180 1 4.5975 18.881 0.843409
7005 1 6.46784 18.6047 1.37336
7080 1 4.05285 18.9381 2.77673
7057 1 4.40211 17.2861 2.798
7073 1 4.96601 19.1549 2.37453
7160 1 4.83686 18.2611 2.86433
3111 1 6.55057 19.2701 2.2014
1112 1 6.19346 17.6239 2.92981
1063 1 6.55902 18.6351 3.0285
1070 1 6.78321 18.4973 0.360924
1031 1 2.55691 19.3046 0.788919
7200 1 0.926437 21.8021 2.11499
7025 1 3.28495 19.6224 0.139759
1146 1 3.23876 19.6315 2.64678
1141 1 3.10515 20.3378 1.01085
7185 1 2.83952 20.4223 2.01616
1086 1 3.14864 19.5139 1.65225
7094 1 2.35323 20.1962 0.312488
7135 1 2.26926 19.9735 2.78649
1096 1 2.1163 20.0782 1.36666
1042 1 2.85713 21.1296 0.364313
1131 1 2.84996 21.3162 1.38399
6952 1 1.90827 21.0015 0.847377
6155 1 1.85425 20.7419 2.17341
7097 1 1.92089 21.6937 1.70335
7087 1 2.74178 21.8162 2.31611
1181 1 1.77029 21.6333 2.71149
7189 1 1.36965 20.1272 0.683551
7035 1 1.13016 20.0344 1.71044
7150 1 1.08935 21.0588 1.45406
6961 1 1.32708 21.925 0.928477
7084 1 0.871904 20.767 2.44056
7976 1 0.965679 21.078 0.424007
7091 1 0.425163 20.4046 0.994929
202 1 2.61124 20.972 2.85089
1196 1 1.15341 19.8348 2.78689
7040 1 2.34652 22.0311 0.764628
7068 1 0.14223 20.1173 1.96518
7044 1 1.66258 21.676 0.00397145
1012 1 6.12022 19.3016 0.135719
7125 1 3.60881 20.6135 2.70653
1998 1 3.79098 21.2646 0.869892
7039 1 3.82672 20.6045 1.70258
1067 1 3.80274 20.4871 0.194905
1026 1 3.94182 19.746 0.998055
1186 1 4.21286 19.8791 2.32382
1018 1 4.33273 19.5321 0.0997348
1029 1 4.49418 21.2667 0.158487
1074 1 4.60091 20.5875 0.961205
1128 1 4.86459 20.6015 2.0057
1267 1 4.84972 19.7074 1.48521
7069 1 5.27695 19.8698 0.45231
7060 1 5.83041 19.415 1.21978
1173 1 5.67741 19.8798 2.12821
1079 1 5.56679 20.4274 1.26685
1072 1 6.25453 20.2282 0.522167
1011 1 6.54514 20.0745 1.53158
1168 1 4.9583 20.1263 2.97287
1177 1 5.28214 21.0872 2.77479
1169 1 5.76742 19.3215 2.97706
1121 1 4.25479 21.3939 2.96953
1126 1 5.98992 20.3526 3.00801
7120 1 6.87733 19.446 0.811936
6954 1 1.10543 23.6865 1.81433
7234 1 2.55216 22.7623 2.68996
58 1 2.46684 22.5859 1.6621
1097 1 2.48513 23.0847 0.76857
1092 1 2.11737 23.5026 2.09668
6065 1 1.89138 23.8775 1.11756
1287 1 1.60536 22.5809 2.21361
6955 1 1.66896 22.6512 0.25978
6 1 1.51277 22.9223 1.23982
106 1 1.17891 23.5141 0.464608
1047 1 1.2652 24.6659 1.59903
7149 1 0.650895 22.7351 1.8048
217 1 0.919921 24.3604 2.57181
7989 1 0.639205 22.6918 0.72217
11 1 0.770831 22.5437 2.83558
961 1 0.734205 24.5242 0.696379
6109 1 0.376472 23.4741 2.49344
957 1 1.37242 23.4318 2.83516
6064 1 0.244422 24.2671 1.69585
6108 1 0.222795 23.6501 0.859505
1 1 5.62885 24.7992 0.909557
6070 1 0.944288 25.5277 2.37124
6115 1 1.16343 25.4382 0.81842
6120 1 0.90157 26.1866 1.55115
6265 1 0.638498 26.3581 0.575779
6128 1 0.741052 27.228 1.28317
6165 1 0.563993 26.9327 2.26582
7 1 0.512848 27.3093 0.203841
6012 1 0.433802 25.2593 1.50821
7085 1 0.0383238 24.9404 2.47695
2 1 0.168751 25.4461 0.527514
1149 1 6.34219 24.8508 2.51997
1988 1 5.30834 25.5753 0.228595
1127 1 5.19167 26.8462 2.54228
102 1 5.0492 27.138 1.5745
1197 1 4.82546 25.795 2.25161
1994 1 5.63375 25.2163 1.8808
7130 1 6.67194 25.3013 1.63048
1190 1 4.97968 25.6211 1.22668
1043 1 6.01113 25.7744 0.9941
1198 1 6.68617 26.4013 1.60881
1189 1 6.71182 25.8484 2.53148
3191 1 5.71013 25.9386 2.86403
3147 1 5.65032 26.2826 1.78069
52 1 6.24809 26.7704 2.48828
958 1 6.32756 26.7344 0.702807
902 1 5.30387 26.4849 0.780808
865 1 6.09083 27.2538 1.59617
63 1 5.54959 27.5005 0.761738
953 1 6.34677 25.7504 0.00937067
7140 1 6.68363 24.9924 0.64792
2093 1 0.1498 13.9668 3.46565
238 1 0.0123958 13.9856 4.53567
191 1 0.946465 14.1838 5.10966
1115 1 0.968924 14.2348 4.06266
3161 1 0.0144867 14.0031 5.62355
2181 1 0.873901 14.385 6.10721
1331 1 3.04786 18.579 4.82063
7164 1 3.01242 18.3367 3.7953
7224 1 2.6646 19.2252 3.41686
7175 1 3.16923 17.467 4.84223
1172 1 3.34361 18.9059 5.88017
6145 1 3.27198 17.2687 3.81734
7103 1 3.78892 16.5475 3.21945
7129 1 3.9659 18.9238 3.84418
7170 1 3.84043 18.0191 4.34093
1171 1 3.80426 18.0861 5.40735
7320 1 3.50345 17.0945 5.72857
7210 1 3.88231 18.0166 3.32292
7075 1 4.3851 18.7866 4.76272
7319 1 4.18994 17.2226 4.89045
1216 1 4.30809 17.2262 3.83879
1108 1 4.74355 18.1892 3.9257
7215 1 4.93566 17.9317 5.10918
1106 1 5.17864 17.256 4.39187
7114 1 5.17359 16.9676 5.39144
1103 1 5.26003 17.4487 3.40676
1157 1 5.67397 18.3982 3.48696
1210 1 6.12439 16.9939 4.90438
1273 1 5.8433 17.797 5.5544
1211 1 5.78507 18.0952 4.53173
1160 1 6.15359 17.291 3.95536
1217 1 4.3777 18.9559 5.77669
1174 1 5.54979 18.7632 5.30426
1158 1 5.31957 18.995 4.33326
1270 1 6.50208 18.8646 4.84227
1309 1 4.85493 19.156 3.4108
1207 1 6.08936 16.8668 5.94252
1163 1 6.23584 19.1925 3.86747
1274 1 4.44462 17.4438 5.94189
1276 1 5.09226 18.2541 6.08953
1269 1 6.71403 17.8838 4.96692
1220 1 6.64632 18.2278 3.99501
1333 1 6.33984 18.7146 5.99284
1282 1 1.81937 19.4474 4.6865
1176 1 0.706648 21.1642 5.14487
7243 1 0.774865 21.5421 3.13036
1246 1 1.58369 21.6005 3.76171
1221 1 2.84351 19.5313 4.35854
7333 1 3.20202 20.3787 5.33207
1076 1 2.98757 20.2232 3.48179
7294 1 2.33815 20.4057 4.70959
7340 1 2.6258 19.4098 5.3543
7145 1 3.12035 21.1668 4.63416
7390 1 2.42514 20.9837 3.85655
7289 1 2.25279 20.3084 5.79544
7334 1 2.68761 21.2924 5.59524
7199 1 2.02671 19.9543 3.79727
1233 1 2.08828 21.455 4.71006
1242 1 2.54007 21.9139 3.34632
7074 1 1.6647 20.7134 3.19751
7232 1 1.655 21.1408 5.60417
7240 1 1.44968 20.6838 4.22072
7293 1 1.38908 20.2669 5.17501
1297 1 1.34483 22.0315 5.19484
1238 1 0.704951 20.5005 3.47046
1293 1 0.649141 21.3349 4.11685
1116 1 0.51643 20.288 4.49473
7288 1 0.837907 20.6197 6.02631
7344 1 0.804753 21.6678 6.05491
7285 1 1.8226 22.0357 6.11753
1180 1 6.83948 20.2714 4.91373
7030 1 3.56409 21.0934 3.6748
1161 1 3.61665 20.2854 4.3256
7158 1 3.63891 19.4458 5.0211
7217 1 3.74108 21.24 5.46419
7038 1 4.00966 19.8078 3.33714
7169 1 4.23147 20.3229 5.14271
1132 1 4.17752 21.2012 4.55774
1188 1 4.8556 21.115 5.40848
7178 1 4.49941 19.6961 4.288
1129 1 4.52827 20.6419 3.77735
1278 1 5.56582 20.926 3.79102
7279 1 4.95129 19.5926 5.17805
1280 1 5.14963 20.4832 4.65969
1124 1 5.46111 19.876 3.83334
1244 1 5.63495 20.3004 5.52643
1320 1 5.96244 19.7399 4.73078
7330 1 6.44811 19.6768 5.64918
1023 1 6.42582 20.2803 3.94745
7219 1 3.81668 19.8337 5.95132
1113 1 6.77328 19.6731 3.16412
1311 1 4.72876 20.2421 6.05988
1349 1 5.44534 19.4254 6.11818
101 1 2.85898 22.1279 4.34288
7290 1 0.135393 22.9459 5.31444
6253 1 0.141741 24.7922 5.00697
201 1 0.617926 23.3181 3.55704
6369 1 1.17749 24.1855 3.58005
252 1 1.42374 24.0559 4.59921
1296 1 1.65406 23.9203 5.61337
6005 1 2.38722 22.3136 5.23658
57 1 2.61149 22.8807 3.70777
1036 1 2.32791 23.7407 3.14021
1237 1 1.80399 22.3978 4.35388
1182 1 1.93489 23.2019 4.94525
1147 1 1.71526 22.5035 3.28911
67 1 1.62906 23.3205 3.88123
1347 1 1.1386 22.9513 5.61661
1148 1 0.851669 22.3229 3.86156
153 1 0.889759 23.1279 4.56622
259 1 0.654946 23.8734 5.3028
1343 1 2.16576 23.0668 5.94476
151 1 0.40039 24.0191 4.2822
111 1 0.391917 24.6579 6.00553
1191 1 0.175302 24.1833 3.23062
1193 1 4.89623 24.7928 5.35367
6280 1 0.192942 26.5992 4.67986
7299 1 1.16457 24.8209 5.30606
6125 1 0.323 26.5219 3.19136
261 1 0.916488 24.9224 4.2734
206 1 0.679364 25.0861 3.25437
6123 1 0.6826 25.7138 4.99552
6160 1 1.23194 26.0033 3.29724
6210 1 1.46974 25.8638 4.29726
6209 1 1.72244 25.7272 5.29573
6315 1 1.15658 26.6743 5.019
152 1 1.0074 26.7393 3.99754
6019 1 0.458002 25.8336 4.00305
7300 1 1.5272 26.4693 5.96957
257 1 0.955147 25.5576 5.98602
6228 1 0.408246 26.4727 5.6973
6105 1 0.0322214 27.2737 3.85262
1136 1 4.89734 25.2304 3.12237
1247 1 4.7672 26.2352 3.24597
1094 1 6.16985 27.2768 4.09619
74 1 5.31854 27.0848 3.56788
218 1 5.16513 26.7359 4.56869
1139 1 5.38352 25.0768 4.45173
205 1 5.98223 24.9232 5.30619
1232 1 5.90069 25.1213 3.49326
1192 1 5.53803 25.99 3.9713
1249 1 5.3732 25.5751 5.84397
1187 1 5.78342 25.9593 4.97733
1133 1 6.39102 25.3309 4.42249
53 1 6.54452 25.9313 3.59729
318 1 4.76202 25.7627 5.02125
1040 1 6.66099 26.3936 4.53274
263 1 6.08283 26.3016 5.9321
120 1 4.48217 25.568 4.05191
1098 1 5.11984 26.5587 5.57112
268 1 6.0162 26.9869 5.1398
222 1 5.71477 27.275 6.09782
1194 1 4.42716 25.9769 6.09121
154 1 6.69189 25.669 5.35572
2106 1 6.81265 26.9399 3.37289
296 1 1.21962 13.8006 7.78722
350 1 0.476689 14.2829 8.28972
1204 1 0.787597 14.5446 7.15755
299 1 1.47679 14.1652 8.73519
7264 1 3.10471 17.921 6.16175
1277 1 3.28353 18.0654 7.24693
1261 1 2.70193 18.7301 7.83133
7368 1 2.86417 18.8403 8.84873
1372 1 3.8435 18.985 9.16588
1375 1 6.47255 16.9999 6.90487
1214 1 3.50859 18.2364 8.23861
7365 1 3.9821 17.4518 7.71621
1403 1 3.75011 17.3077 6.72338
1376 1 4.27626 18.4169 7.49298
7254 1 3.99448 18.2812 6.46923
1268 1 4.13992 17.5683 8.73483
1332 1 4.51522 18.8464 8.41557
1164 1 4.93492 17.2171 8.15219
1367 1 4.53674 16.6996 7.32916
1272 1 4.74816 17.6581 6.93716
1151 1 5.1418 16.8083 6.42403
1363 1 5.84447 16.6791 8.36572
1322 1 5.67363 17.7755 8.63902
1319 1 5.58958 17.9085 7.57811
1259 1 5.56902 16.9008 7.38742
1159 1 5.74117 17.6313 6.57582
1226 1 6.40148 17.3739 7.87206
1373 1 6.3918 18.3908 8.11954
1362 1 6.5548 18.0676 7.12261
1326 1 5.74147 18.6344 6.80984
1312 1 5.23518 18.8575 7.69783
7225 1 4.76659 18.9694 6.72535
7328 1 5.66223 18.992 8.62516
7277 1 3.5545 19.2578 8.18289
1262 1 3.72401 19.2003 6.83751
1370 1 6.67968 17.7205 6.1677
1417 1 6.3833 18.3812 9.14079
1418 1 6.29709 17.1174 9.18379
7295 1 0.135794 21.9747 6.82161
1289 1 0.311533 21.7304 8.62328
1288 1 1.03799 20.9502 8.96257
7384 1 2.56459 20.6093 8.87327
7347 1 0.958478 21.4169 7.9315
1231 1 1.61305 21.0982 6.61864
7222 1 3.07095 19.8154 7.37339
7325 1 3.30609 20.7152 6.32407
1291 1 3.27132 20.8497 7.33921
1386 1 2.88688 19.6793 6.358
1382 1 2.44834 20.4633 6.81715
7440 1 2.57118 19.6744 8.34802
7335 1 2.40104 20.5913 7.84972
1383 1 2.58627 21.4734 6.66199
7282 1 2.04219 19.7251 7.40542
1337 1 1.97741 21.4723 7.4809
7444 1 1.87061 21.282 8.46365
1381 1 2.88099 21.5563 8.62172
7385 1 2.95664 21.8175 7.57773
7399 1 1.66455 20.2236 8.49465
7332 1 1.53282 20.0513 6.58935
1286 1 1.40625 20.5288 7.5138
3276 1 1.16884 21.9423 7.01803
1298 1 0.605348 21.0411 6.94771
7269 1 3.30497 19.8429 9.08071
1426 1 3.43001 20.3659 8.22249
1433 1 2.08977 21.9376 9.18449
1334 1 3.59494 20.9336 9.10045
1134 1 3.46638 21.8884 6.28769
1236 1 3.777 21.3379 8.14256
1328 1 3.97194 21.6607 7.15835
1299 1 5.92569 21.1539 8.77328
1371 1 4.01771 20.2415 6.89209
1222 1 4.24617 21.1296 6.33366
7436 1 4.27111 19.8581 8.63405
1281 1 4.4257 20.5349 7.86395
7327 1 4.39227 19.5152 7.57691
1436 1 4.91468 20.6579 8.76612
1243 1 4.96167 20.6804 6.95487
1318 1 5.19567 19.824 8.14637
1329 1 5.38832 19.7168 7.1321
3168 1 5.46423 20.7802 7.87911
304 1 6.14765 19.3575 7.74809
1330 1 6.21817 20.335 7.32888
1314 1 6.16078 20.1804 8.36727
1179 1 6.32411 19.5177 6.68803
1477 1 6.67716 19.2954 8.64503
1479 1 6.28523 20.5444 6.28875
351 1 0.346304 24.07 7.91258
1341 1 0.409779 22.8367 6.31977
407 1 0.623438 24.5368 8.82257
1392 1 1.18284 22.2986 8.57717
7349 1 1.4176 24.6662 6.30388
1532 1 1.41399 22.7013 7.67379
302 1 1.87176 23.7841 6.64207
1290 1 1.82106 23.1192 8.52858
7345 1 2.13723 24.2007 7.53833
2401 1 2.3797 24.0232 8.50236
7350 1 2.23534 22.4002 7.05692
7530 1 2.18683 22.213 8.18091
7348 1 1.4064 22.8574 6.62283
303 1 1.33756 24.0616 8.21953
6274 1 1.12715 24.2098 7.22231
1241 1 0.891517 23.7689 6.31782
207 1 0.75281 23.183 8.2854
6310 1 0.653079 23.2928 7.22733
7400 1 0.484336 22.2972 7.767
7244 1 0.158734 24.2134 6.93002
6308 1 0.0488861 23.6622 8.85733
1292 1 1.63694 24.5419 9.09321
6355 1 1.07547 23.6511 9.13928
208 1 5.52249 24.6003 6.19112
6416 1 0.00153065 26.8315 9.06322
411 1 2.18258 25.515 9.06438
6304 1 0.158873 25.4467 8.51842
6324 1 0.20508 26.0068 6.57781
6219 1 0.734417 26.9353 6.55752
6320 1 0.714694 26.3398 8.47352
312 1 0.663767 25.1205 6.89282
308 1 0.980429 26.8095 7.57393
357 1 1.16338 25.4683 8.79438
256 1 1.44918 25.8626 7.8944
301 1 1.72613 26.3948 8.74842
254 1 1.67976 25.1098 7.18135
314 1 1.90579 24.9634 8.19832
229 1 1.18552 26.0269 6.8921
361 1 0.918738 24.9941 7.89463
6307 1 0.43359 25.8744 7.58702
6255 1 0.277023 27.263 8.16104
213 1 6.79972 26.9061 7.48904
158 1 5.47148 25.1794 8.31209
3447 1 5.84955 24.9706 7.12496
1449 1 4.7397 27.1305 8.62135
1144 1 6.36486 25.5645 7.89062
1378 1 6.88223 24.9958 7.11587
3193 1 6.21527 26.1399 6.95713
3297 1 6.07267 25.8996 8.83844
1348 1 4.88921 25.2868 6.73766
309 1 5.60616 27.4769 8.09027
1431 1 4.30375 26.3154 9.13907
1398 1 4.33841 26.1294 7.10238
371 1 5.38436 25.831 7.46988
1336 1 4.15856 26.389 8.08417
1245 1 5.07669 26.1499 8.43837
1248 1 5.25463 26.3991 6.58365
264 1 6.56518 27.2746 8.42643