ITEM: TIMESTEP
90000
ITEM: NUMBER OF ATOMS
8000
ITEM: BOX BOUNDS pp pp pp
0.0000000000000000e+00 2.7564674686161492e+01
0.0000000000000000e+00 2.7564674686161492e+01
0.0000000000000000e+00 2.7564674686161492e+01
ITEM: ATOMS id type x y z
4262 1 1.34455 1.64236 1.28452
3465 1 0.703485 2.63499 1.77443
7047 1 0.965013 2.28728 2.77258
2958 1 2.60313 0.902961 1.67987
2203 1 2.63686 1.53587 2.74553
7350 1 0.308251 2.63847 0.813918
4029 1 2.15737 1.14107 0.144586
5852 1 1.1051 0.600013 1.49233
5889 1 1.07015 1.9344 0.350231
7374 1 0.94345 1.23876 2.3136
1186 1 1.07957 0.440567 0.512972
110 1 3.61255 0.863264 1.34296
6328 1 4.1728 1.38075 0.0583377
2270 1 3.59048 0.947858 2.35702
13 1 4.37501 1.70054 2.1651
27 1 4.33666 2.28048 1.35001
1092 1 4.12782 0.239711 0.413633
7200 1 3.67315 2.59973 0.286458
2354 1 6.65272 0.634145 1.21557
1095 1 5.22744 0.100194 0.574713
214 1 5.16767 2.60749 2.05896
6120 1 4.78996 2.30283 2.99097
2928 1 6.45471 1.11718 0.333698
921 1 6.87392 0.588257 2.17944
2313 1 5.64707 0.393203 2.31246
2246 1 3.05757 3.27698 1.2356
4315 1 2.37654 3.62706 2.10801
1252 1 2.45595 4.49473 1.55691
2199 1 2.32383 4.81199 2.50547
234 1 1.08719 4.81707 1.75155
2306 1 3.01696 3.61299 2.8872
870 1 1.30706 4.65287 0.769961
103 1 2.63263 3.1604 0.278223
3199 1 1.22896 5.40415 2.71822
1932 1 6.01981 4.36063 0.352996
15 1 4.64192 4.4758 0.244724
7869 1 4.62896 3.80292 2.71777
5211 1 4.33052 3.81544 1.76889
7223 1 5.63157 3.55253 2.04527
211 1 5.41923 3.29572 1.08206
6163 1 5.11287 3.37602 0.0732073
1725 1 5.12266 4.62916 1.11222
631 1 5.70262 3.38838 3.03098
1919 1 4.28442 5.42628 2.78843
2330 1 6.04846 4.25498 1.39429
6199 1 6.63211 4.44558 2.66953
1167 1 3.15839 5.62346 2.35701
3144 1 2.83166 5.64328 1.3479
6270 1 1.65983 6.19906 1.12247
38 1 1.16338 7.87502 2.60979
1305 1 1.30648 8.0937 0.576534
827 1 3.27876 8.21333 2.66705
6093 1 1.46757 7.75928 1.51245
4178 1 1.74804 6.43203 2.13357
6290 1 3.11074 7.57247 0.745828
2298 1 3.09957 7.07159 1.84899
884 1 2.95451 5.6028 0.313437
6224 1 2.0247 6.88666 2.97045
4941 1 3.15158 8.19422 1.68845
4463 1 1.77792 6.31071 0.120467
137 1 5.35129 5.58772 0.516738
143 1 6.73141 5.80358 1.90846
2191 1 4.32355 5.80101 0.837868
4068 1 4.3417 5.90988 1.86439
2288 1 5.54155 5.73687 1.57705
3971 1 4.46287 7.47795 0.0787193
2371 1 6.58668 6.02252 0.91487
4211 1 4.69152 6.80138 1.22496
4466 1 4.45348 7.88979 2.30859
2849 1 5.38009 8.19363 1.00147
4078 1 5.49536 7.81648 1.89582
5916 1 5.72213 5.94767 2.67421
606 1 4.53298 6.98673 2.84178
4309 1 5.41953 7.70711 2.90735
2127 1 6.83529 6.04387 2.97627
2216 1 2.18319 9.91561 2.08193
6117 1 2.12934 10.1662 1.11212
2291 1 2.04512 10.3478 2.98595
1203 1 2.06273 9.99214 0.06624
18 1 0.864511 8.98305 2.52553
5164 1 0.316586 10.1582 2.27155
1902 1 0.808569 8.81501 1.52233
7471 1 3.7064 10.2418 1.88685
4037 1 5.11343 9.78523 0.408629
1192 1 3.79645 10.141 0.8459
649 1 6.27057 10.7225 0.547591
3117 1 5.31534 9.31684 2.32282
2646 1 5.13949 9.51343 1.37677
54 1 6.67528 8.86826 0.263977
1103 1 4.43815 10.9691 0.480609
146 1 3.51993 10.2014 3.00845
10 1 6.78162 8.63481 2.46115
2234 1 3.07552 13.2807 1.4583
5357 1 1.76145 12.0343 2.31599
249 1 2.15645 12.7247 0.686284
1854 1 3.29031 12.9683 2.43707
929 1 2.87613 11.6394 0.229019
6087 1 1.62428 12.9814 3.05053
2851 1 1.51075 12.8168 1.61761
3731 1 1.82262 11.774 1.29268
6682 1 1.86986 11.5148 0.261647
1316 1 3.18784 11.5821 1.51166
3087 1 0.534131 13.1008 2.50351
1147 1 0.263679 12.4457 1.5916
7874 1 0.196541 12.3659 0.530569
2078 1 6.4762 12.5751 0.26979
3111 1 5.90815 12.9339 2.54185
2185 1 3.78025 11.3352 2.38008
4284 1 5.94597 11.1241 1.56338
1020 1 5.96029 12.1861 1.13037
5505 1 5.45991 12.9068 1.6216
1019 1 5.94296 11.4526 2.79803
4831 1 5.50766 12.7522 0.352693
6950 1 4.23082 11.054 1.49708
6166 1 0.99839 1.0565 3.32044
3018 1 2.98691 0.0402307 5.54807
4173 1 1.31525 2.28018 4.87179
2534 1 2.46302 2.4637 5.41184
7600 1 1.04965 2.25865 3.91238
2358 1 1.27801 2.38113 5.85968
6418 1 1.15338 1.38901 5.34328
16 1 2.98199 1.52895 3.72129
988 1 0.884877 1.36199 4.37537
14 1 3.04408 1.82871 4.66435
7160 1 3.42514 1.29948 5.78977
24 1 6.38226 0.321387 3.07175
2314 1 5.65631 0.165262 4.97435
402 1 5.6084 0.333627 3.93009
1587 1 6.86549 0.894075 4.4363
1317 1 4.09624 1.50987 3.20129
335 1 4.46954 1.99912 4.11889
231 1 4.03749 0.848805 4.44461
475 1 4.314 1.66698 5.02106
1315 1 5.67164 2.1066 5.43709
7487 1 4.2275 0.441644 5.42916
6938 1 5.55126 2.21517 4.24557
2079 1 4.35352 2.07101 5.95876
6370 1 1.81655 2.83138 3.4029
7647 1 2.11898 2.87945 4.41649
6356 1 2.84349 5.2657 4.34379
2412 1 0.967963 4.64849 5.9451
7260 1 2.13031 4.22466 3.44899
128 1 0.493486 4.21555 4.95553
5335 1 1.00934 4.80139 3.99016
2363 1 1.994 4.45359 4.4157
6195 1 3.35743 3.60002 3.87433
4234 1 1.81233 4.34209 5.44831
2421 1 3.29264 3.69838 5.8388
4330 1 2.61499 5.28635 3.37535
2217 1 1.10901 5.07957 5.0312
4453 1 6.74494 3.23956 4.36037
876 1 6.84571 4.7728 3.59981
1442 1 3.63434 3.46468 4.85718
168 1 5.05845 3.51857 4.80202
2195 1 5.79315 4.65128 6.05977
7284 1 4.75743 3.58705 3.73422
3211 1 4.81908 3.88208 6.12023
1208 1 6.26758 3.12946 5.27383
6321 1 0.164073 6.08202 5.22917
343 1 0.116306 7.35764 5.47817
3341 1 2.14863 6.14104 4.90611
382 1 1.91002 6.49323 3.93068
3302 1 3.16568 7.77412 4.8894
984 1 3.12046 8.02288 3.84717
6214 1 0.194542 7.71656 4.46823
295 1 2.22331 5.97813 5.92963
2566 1 0.752976 6.0804 6.07444
293 1 1.4727 8.17074 4.52739
2491 1 2.81809 7.3593 5.80518
2368 1 6.4794 5.57552 4.79445
906 1 4.47804 5.92166 3.65063
6441 1 6.17124 5.65513 3.68996
3194 1 4.42727 7.0863 3.86925
2273 1 5.49449 7.75877 3.92654
220 1 3.45681 6.4564 4.8065
1152 1 4.26057 5.65288 6.05563
452 1 4.82683 6.03253 4.60931
3065 1 5.92267 7.40403 5.98553
2484 1 4.69687 6.49267 5.55434
1429 1 1.13085 8.28841 3.56915
4995 1 0.833502 9.81426 3.10225
3003 1 1.86065 10.0735 3.94733
2967 1 1.53372 10.4879 4.79878
998 1 0.63834 9.82548 4.04794
3969 1 0.739685 10.414 5.51851
4936 1 3.1661 10.5539 5.2199
4048 1 3.29775 9.8576 6.00701
5662 1 0.813123 9.26491 4.94682
1407 1 3.32875 10.5803 3.96846
6176 1 0.00458848 10.8899 4.46127
4254 1 1.52001 8.45732 5.57119
980 1 0.956937 9.45513 5.94958
7269 1 6.52155 8.81443 3.53123
1335 1 5.0779 8.27041 4.85628
144 1 5.15947 9.5791 3.33038
3091 1 4.99474 9.49261 4.37991
7126 1 4.67599 9.90727 6.02725
960 1 6.16482 9.05272 5.29322
1366 1 5.85504 8.75486 4.37264
3353 1 5.3256 8.32209 5.83007
4989 1 0.490475 13.0468 3.47094
1327 1 3.22598 12.981 3.55061
3344 1 0.102738 12.6873 5.44974
115 1 1.89713 12.2075 4.32582
378 1 1.85444 11.9226 3.33984
1215 1 2.18962 12.2159 5.36069
7172 1 1.5501 13.1635 4.08693
185 1 1.18964 12.8362 6.04765
2972 1 3.14626 11.9942 5.92692
3939 1 1.39556 12.8915 5.06642
1175 1 3.2054 13.2513 5.40018
245 1 3.15634 11.6406 4.45838
39 1 0.260706 13.0215 4.45123
277 1 4.08059 11.2943 5.43286
6143 1 4.1222 12.6279 4.98867
3063 1 5.63471 13.0998 3.51523
3252 1 4.02095 11.3338 3.35553
2081 1 4.01895 12.8211 6.00613
3306 1 5.77385 13.1064 4.55025
1172 1 4.21874 11.3445 4.40286
7903 1 3.4882 13.428 4.41562
3215 1 5.97141 11.3013 3.787
2548 1 5.60274 11.4202 4.69235
4242 1 5.71031 12.7476 5.57691
3474 1 6.59598 11.5798 5.64835
1373 1 2.01132 0.213143 8.27898
398 1 1.78279 0.106518 7.28109
133 1 2.6673 2.58608 6.41036
508 1 0.266363 2.68677 8.83653
2728 1 1.86106 2.39573 8.24231
7294 1 1.41761 1.61557 7.70066
4405 1 1.76756 1.21721 6.78152
2051 1 3.43561 1.59719 8.74987
6435 1 0.868359 2.17096 6.73209
163 1 1.64823 0.037357 6.27218
2445 1 6.54611 1.51253 8.26479
3201 1 3.62441 1.60809 6.73464
232 1 4.11924 0.681446 6.45295
322 1 4.29171 0.477253 8.64709
2227 1 3.45526 1.83477 7.71936
4392 1 6.02448 2.59046 6.37083
4636 1 4.81059 2.21155 8.14632
4381 1 4.47058 0.876329 7.75165
4650 1 4.8445 1.51289 6.97616
5624 1 6.2647 2.59323 7.32176
3338 1 6.05153 2.56814 8.27675
6530 1 4.30801 2.09021 9.02086
1415 1 3.77892 0.0357242 7.41462
1380 1 6.69869 1.11949 7.35731
353 1 5.51376 2.50847 9.15629
358 1 2.29949 4.67908 9.16501
2223 1 0.520085 5.32244 8.53525
83 1 0.308656 2.83376 7.87728
6254 1 2.20394 3.61596 8.11947
4659 1 1.43557 3.80987 6.56398
608 1 2.75595 4.65359 7.24069
567 1 1.18241 5.38407 7.59368
420 1 1.41601 5.26683 6.57895
2406 1 2.07928 4.73493 8.19482
2436 1 1.98301 2.82865 7.30994
60 1 2.62513 4.82279 6.16276
5276 1 2.62818 3.36179 9.04672
1637 1 3.36662 3.98478 7.79734
5977 1 6.57361 3.69472 8.40328
3237 1 3.51944 3.96349 6.80092
3394 1 4.60574 3.87135 8.27709
123 1 3.93007 4.59437 8.60105
2082 1 5.42443 4.52315 8.47446
1488 1 4.75949 3.41234 7.08049
4620 1 5.6842 4.86366 7.10986
6691 1 1.92676 5.77795 8.73797
273 1 2.75836 7.61288 8.85408
1077 1 0.628758 7.41385 6.38066
332 1 2.20543 6.33058 7.92784
434 1 0.875609 6.47712 9.11351
117 1 0.315541 6.37599 8.07969
428 1 0.591713 6.35148 7.02921
6070 1 1.23069 7.55531 7.2705
2283 1 2.40569 6.03625 6.95324
363 1 2.85653 7.73906 7.84486
2518 1 2.74263 7.62866 6.80273
271 1 1.28932 7.77607 8.27463
279 1 5.6717 6.28434 8.77295
4192 1 6.2062 7.2859 6.95184
6343 1 5.19472 6.50512 7.65881
2643 1 4.82109 6.8161 6.65395
4335 1 4.51465 7.56737 7.52195
564 1 4.71717 5.77397 7.21426
3368 1 4.71353 8.18344 6.63891
3502 1 4.53456 5.84764 8.20928
2520 1 4.51166 7.86136 8.56398
1408 1 5.9702 7.76932 8.53617
3951 1 5.87845 8.10891 7.62552
6260 1 1.47467 8.75321 6.55756
7204 1 0.715215 10.4232 6.51555
411 1 1.3354 8.69861 7.55323
4282 1 0.642682 10.3675 7.57033
3247 1 2.45162 9.32087 8.30173
2425 1 1.18886 8.88689 8.58541
4226 1 0.896145 10.4407 8.66587
230 1 6.77837 8.53878 6.60199
7444 1 5.61316 8.75308 6.73332
7365 1 6.42642 9.6592 6.19805
3291 1 6.84152 8.94173 8.73878
5447 1 6.77295 8.85093 7.72502
125 1 3.558 10.1993 7.00738
100 1 5.90393 10.1467 8.4656
3915 1 6.22123 9.75334 7.18391
1058 1 4.18513 9.99052 7.89105
1404 1 4.76946 10.0231 7.04512
7455 1 4.6429 10.7013 8.67339
7281 1 0.493332 13.1789 9.04995
2181 1 2.55208 12.7926 6.75552
7966 1 0.21564 12.9267 6.40628
6350 1 2.67552 13.6444 6.12708
6046 1 1.13463 12.9659 8.11815
983 1 2.36556 11.5286 6.45508
6134 1 3.10895 12.8988 8.72012
1354 1 2.85323 12.5988 7.75714
3454 1 2.10798 11.8545 7.49182
6389 1 1.86522 11.7458 8.4797
142 1 1.14143 12.8263 7.0497
3159 1 5.39705 13.6303 8.36302
1458 1 3.90491 13.1469 8.00265
93 1 6.34222 11.2098 6.56016
2265 1 5.83865 12.2128 8.52223
2370 1 3.82723 13.1704 6.94638
5651 1 4.20961 13.4369 8.99121
1060 1 5.98387 12.1973 7.53329
3267 1 5.92337 12.4365 6.54155
6090 1 5.10058 13.5026 7.26748
329 1 4.0679 11.3923 6.46778
6585 1 3.54499 11.5097 7.36461
642 1 3.50482 11.93 8.36249
1282 1 0.36803 1.87196 10.7283
6459 1 1.47871 2.28621 9.24647
6809 1 1.39561 1.47718 11.7369
6460 1 2.64402 2.28551 9.76056
6623 1 0.485823 1.99919 9.71469
4386 1 3.30676 2.39271 10.6681
7184 1 0.216767 2.06241 11.727
1344 1 1.77857 0.179035 9.2827
7259 1 2.32564 0.0170379 11.241
6571 1 2.3744 0.331638 12.1678
701 1 4.59804 1.65346 10.1208
6452 1 3.80216 1.46497 11.7649
6573 1 5.32147 0.928273 11.9261
6667 1 5.0224 1.69017 11.2567
290 1 3.75858 1.34279 10.7395
458 1 6.37245 2.0552 9.52436
3523 1 3.62111 1.54988 9.69187
5159 1 5.77243 2.27765 10.2949
4570 1 6.63374 1.48067 11.2019
5589 1 6.76709 1.34954 10.1842
4723 1 6.60377 0.876895 9.23049
659 1 3.20799 2.95257 11.6121
6500 1 2.25526 4.44728 12.2245
2567 1 1.41099 4.99702 10.8501
6443 1 2.20783 4.40899 11.2106
6341 1 1.26911 3.59168 10.5934
5444 1 2.06349 3.81386 9.82619
2691 1 1.21315 3.64668 11.5918
2423 1 2.33598 4.74345 10.2105
1324 1 0.901167 5.43809 10.0121
6648 1 0.90253 5.40016 11.67
720 1 0.143509 2.94915 11.1255
380 1 1.05542 4.76547 9.21052
585 1 0.256836 3.25529 10.1566
3597 1 6.61512 3.12558 11.5632
6645 1 3.60094 3.48134 10.5444
1242 1 5.58146 3.71539 11.153
7551 1 4.0183 4.76906 11.7101
1209 1 4.50652 4.40145 10.7537
2474 1 4.80448 4.12914 11.6537
2466 1 3.95769 5.30766 10.2474
418 1 5.56004 4.04204 10.1794
1345 1 3.73636 4.00443 9.47978
2415 1 6.47184 4.1629 9.30072
6728 1 4.8236 4.71175 9.81399
1093 1 6.81955 2.9181 10.5864
4482 1 6.85794 4.34108 10.3616
6315 1 5.10216 3.84611 9.2818
7440 1 1.85241 5.64533 9.77375
1397 1 0.638177 6.84043 10.0844
7414 1 2.84199 6.67026 11.6873
6763 1 1.61018 7.07268 11.1268
3522 1 1.99294 8.04393 11.1875
445 1 2.78058 7.9118 10.0997
3452 1 2.36789 6.68125 9.82027
414 1 3.3771 8.08678 11.4415
1217 1 1.51041 7.37862 9.29946
334 1 1.6842 5.93051 11.1267
4568 1 1.81776 7.57164 10.3012
6565 1 1.59422 7.62566 12.1115
484 1 1.83064 6.47941 12.0549
1321 1 0.215179 8.22851 11.9145
435 1 4.86754 5.94846 10.2402
1363 1 4.30527 5.63885 11.1874
500 1 5.74126 5.93099 9.71448
6499 1 4.01547 7.68116 9.62243
2424 1 3.94921 7.76851 10.6438
2678 1 4.14251 7.44563 11.6094
215 1 5.4313 8.11453 10.3803
629 1 6.34832 7.68731 11.3081
527 1 4.70023 5.94294 12.1995
30 1 5.49738 6.17829 10.9647
474 1 5.26852 8.21996 11.3732
3169 1 5.78918 7.75062 9.51831
6160 1 4.45793 5.72915 9.26276
2390 1 6.67093 7.77299 10.3531
2483 1 6.52852 5.67436 11.6851
3451 1 1.05824 8.74715 9.55254
3418 1 0.751396 9.93424 11.6819
1009 1 0.778066 9.99848 9.7235
2668 1 1.29962 8.79715 10.565
3213 1 0.98105 10.0509 10.6991
7154 1 2.70415 9.58772 9.29241
4629 1 1.37008 8.73646 11.6892
6220 1 0.198307 8.47768 10.9503
2569 1 3.78042 10.7503 11.895
3301 1 3.89852 10.8013 10.7573
2559 1 4.37315 10.7202 9.71385
5158 1 6.23219 10.6345 11.1679
3879 1 6.44135 8.87707 10.6912
6671 1 6.49665 8.72315 9.68669
1288 1 5.53979 10.164 9.40467
3135 1 5.5504 9.5936 10.2701
570 1 6.03395 10.4542 12.1279
2348 1 6.48434 8.77565 11.6829
2302 1 1.75454 12.0866 9.47831
573 1 3.43462 11.7509 9.39653
324 1 3.00879 11.7808 10.279
181 1 3.00292 11.9733 11.276
2526 1 1.727 11.8746 11.459
7470 1 0.583312 11.566 11.8668
3175 1 2.04197 12.0788 10.4829
1059 1 0.717295 12.7312 11.0139
540 1 0.717106 12.712 10.0065
7207 1 0.540145 11.5017 10.7752
460 1 3.40019 12.7995 9.67053
2899 1 1.1653 12.8629 11.9371
6109 1 0.25257 13.5955 11.3142
482 1 2.05522 13.5541 10.2362
3401 1 5.22207 13.5663 9.3536
1664 1 3.80896 12.699 11.7179
1801 1 3.69328 12.4641 10.6502
6592 1 5.58099 12.2287 11.2789
2277 1 5.79067 12.2777 9.56926
2496 1 5.71149 12.7915 10.4647
2471 1 4.57914 13.1164 9.97534
1558 1 5.02822 11.4275 12.2381
388 1 5.26731 13.7103 11.8291
450 1 4.73788 13.1034 10.9836
580 1 3.32724 0.425822 14.3556
4633 1 2.49681 0.483341 15.2185
7844 1 2.29037 0.137431 13.1613
1544 1 1.26746 1.75076 13.6088
652 1 1.75971 1.94356 12.5864
7427 1 1.34341 1.67336 14.627
7899 1 0.147956 2.48829 14.5694
601 1 3.58187 0.410954 13.307
1653 1 3.59404 2.4397 14.4851
2303 1 4.61075 2.04191 12.5469
6420 1 4.49102 2.05561 13.5442
1430 1 5.47295 2.14443 13.2397
315 1 5.58739 2.28973 12.2558
252 1 5.84161 1.78389 15.214
6609 1 4.11596 1.19475 12.7133
7721 1 4.79585 2.35061 14.473
3505 1 5.82527 1.96794 14.1681
1595 1 5.78914 0.876571 12.7766
6743 1 6.58165 2.6839 12.4719
614 1 5.34021 0.977977 13.6479
1673 1 3.75695 0.550506 15.3035
5348 1 5.69765 0.880368 14.586
7366 1 0.245442 3.08554 12.5518
2751 1 0.227826 2.76885 13.6277
464 1 1.64473 3.56657 12.5514
2669 1 2.38235 4.33403 13.2913
843 1 1.39023 3.71106 13.5199
3469 1 2.25177 3.05399 14.808
723 1 2.22656 3.93256 14.2734
648 1 0.772262 4.98611 13.6438
513 1 0.718993 5.3915 12.7078
3651 1 1.85792 3.99649 15.2812
2803 1 1.08282 3.7059 14.5136
251 1 3.56964 3.17169 12.6317
2262 1 3.59478 2.81349 13.591
4379 1 3.46763 4.04231 13.6584
6619 1 4.8938 4.0702 12.7934
3500 1 5.53112 3.05829 14.0354
3367 1 5.94066 3.97498 12.4958
2570 1 4.26997 5.0124 13.6755
2806 1 3.7089 4.42384 14.6219
2609 1 5.56543 4.08013 13.7458
6820 1 5.69648 4.84406 15.3013
612 1 4.33052 5.00267 12.6506
4294 1 5.32691 5.37725 14.5271
2564 1 4.79944 3.81219 14.8565
4421 1 5.71203 2.80481 15.0297
6837 1 0.340335 7.80366 13.9499
3728 1 2.30641 6.38663 12.9044
4501 1 1.53479 7.26306 13.1599
2791 1 1.89276 7.49216 14.206
5565 1 1.30214 5.85918 13.4153
469 1 0.26403 6.52052 14.1284
672 1 1.08214 5.60253 14.4331
3721 1 2.01585 6.16207 14.3168
829 1 1.72956 7.49158 15.2467
589 1 3.24166 5.68381 13.0477
740 1 1.96799 5.53918 15.2432
2341 1 0.127837 6.94866 15.1591
6330 1 3.53368 7.90943 12.4494
407 1 6.20207 5.6254 12.6719
258 1 5.91777 5.51601 13.6333
1711 1 6.70412 7.20716 14.357
2871 1 4.53612 5.89888 13.1854
955 1 4.68216 7.70658 13.5017
3752 1 3.74017 7.08823 13.9563
1585 1 4.81751 8.16081 12.6203
3558 1 3.52075 5.93438 14.0416
593 1 6.34941 7.33084 13.3695
2472 1 6.17443 7.57111 12.3225
2730 1 6.50307 6.07562 15.1499
599 1 3.75793 6.67533 14.9018
7558 1 0.77991 8.61153 14.6292
3436 1 3.40804 8.29532 13.4609
6591 1 1.29879 9.79686 12.6082
1701 1 1.56778 8.69846 12.7401
5729 1 1.13957 8.81201 13.7456
517 1 3.35284 9.01152 14.2108
581 1 1.55558 10.147 13.5382
2259 1 3.25975 10.8887 12.8238
3426 1 1.20403 10.1302 14.7953
2621 1 6.33295 9.93102 13.9883
6770 1 3.5178 9.20631 15.186
393 1 5.99355 9.65486 14.8927
5472 1 3.79803 10.9756 14.7323
6368 1 5.40785 8.61935 14.3264
4516 1 5.58737 8.75989 15.2796
2858 1 5.85302 8.88827 12.4704
3592 1 6.49675 10.1951 13.0541
5529 1 5.84477 8.92939 13.5262
7253 1 0.800314 11.2578 13.0526
6300 1 3.10865 12.1777 13.4221
3381 1 2.97392 11.4728 14.282
6385 1 1.13293 13.0019 12.9412
2453 1 3.18135 12.1074 12.3634
7242 1 1.1331 12.2944 13.8201
331 1 1.09622 12.7367 14.7269
7322 1 1.70901 11.8237 15.2747
3524 1 3.20115 12.8061 14.2183
1469 1 6.04722 13.6561 13.686
3479 1 5.35722 11.403 13.2195
3608 1 4.22685 12.9633 14.6377
5557 1 3.67421 11.0367 13.7066
1459 1 4.09235 12.766 12.7537
1770 1 6.10318 13.3993 14.6717
6353 1 5.68579 12.3714 12.3373
442 1 4.98066 12.0892 13.8715
1566 1 5.11408 12.223 14.9303
2336 1 6.21957 12.4046 13.3303
4470 1 6.40251 11.8826 14.2267
3313 1 4.27172 13.7765 12.7377
3490 1 6.8213 12.887 12.3791
3535 1 4.25643 13.2991 13.661
4025 1 0.165976 0.233025 16.0138
3853 1 0.910993 2.47605 17.6016
6955 1 2.81803 0.0848938 18.2641
2356 1 2.42986 0.589406 16.2088
7678 1 1.27654 1.37067 17.7139
209 1 1.06942 1.77816 15.717
6613 1 3.40709 1.012 16.9143
5391 1 1.06437 1.73841 16.7993
1794 1 2.55449 0.270759 17.3054
371 1 3.43055 1.61624 17.6567
1740 1 2.26569 1.83087 18.3254
1598 1 5.89024 0.537447 15.5945
1433 1 3.50771 2.01155 15.4161
3249 1 3.53914 2.0208 16.4738
1724 1 4.41736 0.246214 17.3449
821 1 4.64545 1.77433 15.3368
3711 1 4.70344 1.89942 16.3104
6705 1 6.53131 1.95847 18.3342
877 1 5.02864 2.16243 17.2298
7544 1 5.97703 2.20545 16.1434
3644 1 4.42954 0.0507166 16.3233
6808 1 6.88466 1.59288 17.4508
2008 1 5.86088 0.141498 16.6497
6795 1 2.39347 5.19214 18.0633
3186 1 0.647507 5.26011 17.3768
2830 1 2.2409 3.22195 15.9734
5645 1 1.32527 3.981 17.5099
5841 1 1.62513 4.06391 16.5304
770 1 2.85783 2.8987 17.901
408 1 0.105287 4.88565 16.4057
1289 1 0.658261 3.74591 15.4645
5530 1 2.00179 2.77057 16.9447
1745 1 2.79905 4.74966 17.244
1810 1 2.9373 4.05605 18.187
2451 1 2.6406 4.76208 16.1154
1861 1 6.84092 4.87036 18.1688
3643 1 4.943 2.88936 15.6004
2827 1 4.74082 3.0031 16.5587
6934 1 4.30172 2.83987 17.4458
6410 1 4.02944 4.2561 17.5998
2701 1 5.45557 5.12137 16.2253
3470 1 6.67452 4.88642 17.1539
700 1 6.33529 3.29735 16.8461
864 1 3.80974 4.26565 15.6135
6945 1 4.99732 4.45516 16.9669
6720 1 3.94022 4.1395 16.5932
3677 1 6.87333 3.18087 15.9629
2867 1 5.22528 4.20124 18.005
724 1 6.18698 3.13045 17.8441
7835 1 2.80425 7.01772 17.9621
524 1 1.82252 5.62582 16.2359
6823 1 2.07413 5.77116 17.2466
1546 1 0.909908 5.80966 15.4187
817 1 1.6633 7.47062 16.2587
6810 1 0.359713 6.37345 18.0233
1623 1 1.54204 7.31458 17.2872
6655 1 3.23943 7.00827 15.6997
1834 1 1.3313 7.25195 18.256
3837 1 2.93461 7.0267 16.6296
1753 1 5.63577 5.57662 18.203
1832 1 5.72815 5.57555 17.1617
2475 1 6.31179 6.29581 16.2119
1359 1 5.04532 5.73129 15.447
4052 1 4.04472 7.1131 17.6737
2367 1 6.73997 6.33066 18.1938
2935 1 4.35996 7.10249 15.9265
6672 1 6.67291 6.30348 17.1499
583 1 6.68635 7.68457 15.6616
6885 1 4.77919 7.09306 16.886
3933 1 6.79292 7.67589 16.737
1503 1 0.805818 8.62228 15.6057
338 1 2.86294 9.10919 17.4829
1608 1 0.569122 8.63617 16.6417
1903 1 0.567796 8.73682 17.8548
590 1 3.02412 10.2155 15.9077
4664 1 1.2339 10.1345 16.7851
7849 1 1.26358 10.1307 17.8778
6633 1 2.67199 10.1436 18.094
671 1 1.37063 10.3572 15.8333
798 1 2.69009 9.98707 16.9995
1436 1 3.14243 10.9099 16.9049
219 1 6.86068 9.89748 15.8721
1325 1 3.59544 9.28953 16.3656
2892 1 4.05746 9.57432 17.2509
323 1 4.20276 10.5025 15.5788
6332 1 4.36951 10.4769 16.5584
2416 1 5.47817 9.01589 16.2397
3413 1 5.41948 8.78597 17.3336
2616 1 4.53772 10.5797 17.5835
1719 1 3.50223 11.0147 17.8962
492 1 0.0850147 12.1498 16.4279
717 1 1.97433 13.7552 17.624
1382 1 1.8249 13.3615 16.6108
2999 1 1.66148 13.6828 15.6611
1347 1 1.77152 12.2829 17.544
462 1 2.95831 11.3796 15.3216
518 1 0.823334 13.1337 17.7623
3411 1 0.800338 13.0043 15.7075
2727 1 0.866567 13.1218 16.7785
7468 1 1.86908 11.9263 16.2718
1695 1 6.46947 11.7778 16.9827
3654 1 6.53916 13.0548 17.1611
865 1 3.92882 13.0772 15.5754
2897 1 6.66134 12.8691 18.1351
465 1 6.34201 13.4704 15.6478
6383 1 4.45478 12.1558 16.0511
1767 1 6.12704 11.5419 17.9354
880 1 4.40411 13.4615 16.5867
4632 1 4.10942 12.9499 17.5969
2757 1 5.90376 12.1747 15.7617
451 1 5.46351 13.0249 16.4458
543 1 4.74585 11.9976 17.0788
345 1 5.3756 13.1464 15.4111
2093 1 5.40586 12.8415 17.4148
5625 1 5.41256 13.3381 18.263
4304 1 2.25677 2.09711 19.4455
621 1 0.701999 2.36405 18.5932
4775 1 1.26228 1.8245 19.7125
1066 1 3.22676 1.76172 19.4474
1782 1 2.38475 0.378906 20.1415
1686 1 3.23773 1.8534 20.8777
6320 1 1.25312 1.32173 18.7558
1759 1 2.40622 0.140106 21.1375
7189 1 1.85738 2.09824 20.5464
676 1 0.564021 2.65954 21.3904
6771 1 2.86424 2.55332 20.0859
7075 1 1.16248 1.11803 20.7118
3042 1 3.99836 2.12993 20.2314
565 1 4.62113 1.60681 21.2117
1322 1 4.62571 1.85683 19.325
780 1 4.61116 0.178682 20.8167
6604 1 5.04248 1.46255 20.1135
526 1 6.18953 1.46252 20.0685
63 1 5.86923 1.38928 19.1399
1098 1 5.94231 1.37263 21.0798
2886 1 4.54312 2.69646 18.475
2106 1 5.97409 2.57282 20.9922
4979 1 3.4709 1.24062 18.6479
3758 1 0.3037 3.03204 20.3424
7666 1 1.59477 3.9595 18.5423
4403 1 2.15519 3.80071 19.4085
4355 1 2.68137 2.86724 18.8803
819 1 1.91914 3.67288 20.4811
7935 1 0.430297 5.38095 19.4361
5784 1 1.64144 5.04821 20.211
6075 1 2.88351 2.93479 21.1579
6106 1 3.202 4.80289 20.155
2854 1 3.37843 4.23762 21.0442
6057 1 1.54728 5.26933 19.2276
17 1 2.80876 4.7686 18.8836
6718 1 2.84982 5.33024 21.1579
506 1 1.10024 5.00642 21.2414
4288 1 0.612554 2.9907 19.3537
7800 1 0.941311 5.22026 18.4265
7779 1 4.26654 4.08586 18.6094
4967 1 5.29553 3.51613 20.912
915 1 5.33886 4.10218 19.0117
2016 1 5.07851 3.66179 19.9171
5691 1 6.53451 5.07037 19.1767
6713 1 6.30115 4.50226 20.0447
7700 1 3.97244 4.50543 19.6172
871 1 6.01945 2.91797 19.8923
787 1 5.51097 5.40622 19.2426
4020 1 5.31721 5.40744 20.2791
6902 1 6.26226 2.98691 18.8438
1849 1 6.35031 4.3593 21.0787
6968 1 0.370103 5.72798 20.438
1756 1 1.73308 7.25162 19.4863
4922 1 2.33341 7.10035 20.3064
689 1 0.568552 6.80835 20.2149
1434 1 0.557758 7.05676 18.907
188 1 2.88745 6.14705 19.9384
2240 1 2.73966 7.26369 18.9418
707 1 0.530906 6.72942 21.2258
2023 1 2.50527 7.55339 21.3508
4093 1 4.24454 6.95125 20.6309
1996 1 3.93882 6.75151 19.6054
1464 1 4.20037 7.19106 18.705
2936 1 6.43103 5.75487 21.0794
661 1 6.33088 5.78084 20.0711
1501 1 6.68665 6.33002 19.1949
1956 1 5.01775 5.56137 21.3115
4187 1 6.72148 6.82413 21.3623
1438 1 2.60884 8.95697 18.4812
4609 1 2.63867 9.86726 19.0566
6860 1 2.9723 8.99064 19.3879
647 1 2.88104 8.70728 20.32
952 1 0.24546 8.62123 18.8415
7100 1 2.58606 9.0703 21.2065
628 1 1.6894 9.00538 20.5093
1828 1 1.39432 10.2588 19.7335
626 1 0.244829 9.75174 21.1243
681 1 2.3632 9.75033 20.1241
4794 1 1.82856 10.4129 20.7538
605 1 0.0251901 8.5717 19.881
4822 1 3.20653 10.972 18.8508
702 1 1.65086 10.1165 18.7872
4573 1 4.14262 9.35286 20.3713
3907 1 4.22439 9.63624 19.3798
3774 1 4.80937 10.6664 18.677
6907 1 4.06687 9.47604 21.4333
519 1 5.28205 8.85403 19.417
1309 1 4.97999 8.93424 21.3167
2443 1 5.49809 8.95063 18.4016
1605 1 4.50555 10.8214 19.7109
2638 1 5.53379 9.02525 20.4485
6794 1 3.55333 10.411 19.7711
4593 1 4.0343 10.742 20.7178
7719 1 4.04004 9.81301 18.3837
6745 1 0.284715 13.031 19.5024
6999 1 1.06128 11.3575 21.0663
7671 1 1.15472 13.2102 20.9266
3724 1 0.8423 11.7679 20.1732
7633 1 2.63232 11.2022 19.6923
1728 1 3.02645 11.3157 20.8312
794 1 1.92817 11.6552 18.6949
6030 1 2.23632 12.2433 19.7916
3835 1 1.49927 13.072 19.519
3772 1 1.94546 13.5952 18.7072
3506 1 1.28903 12.7937 18.5748
1654 1 1.92616 11.5958 20.5235
6725 1 1.87778 12.3761 21.3664
3764 1 6.52934 13.6899 19.7682
548 1 4.84846 11.6102 20.4426
1895 1 4.74289 11.7725 19.4335
1795 1 5.36462 13.3827 19.4873
1780 1 5.38214 12.8669 20.6307
4797 1 5.89782 11.4036 21.0599
6635 1 6.11051 11.2822 19.9578
5920 1 6.3139 11.3471 18.9297
3572 1 4.71288 11.4149 21.3841
6656 1 6.86892 12.5902 19.1155
3740 1 6.5879 13.6356 21.0086
1518 1 4.63934 12.0115 18.4166
4833 1 1.83387 1.98191 21.501
5295 1 1.72143 0.404731 24.1497
6994 1 1.83198 0.0730067 23.1746
6815 1 2.32288 1.14957 22.0199
1671 1 1.58077 1.68592 23.2537
731 1 1.82771 2.21093 24.1428
1073 1 0.199734 2.082 24.3839
1970 1 3.01013 2.16248 21.8541
7989 1 2.53849 0.857709 22.9606
1657 1 1.02159 2.2881 22.3198
3999 1 2.54633 1.2227 23.9478
6778 1 0.255317 1.31362 22.4939
1083 1 0.674964 1.23655 21.6076
6112 1 3.22925 2.51632 22.8822
2868 1 2.07868 0.0785493 22.1774
7299 1 6.04744 2.27014 21.976
7042 1 5.11058 0.706671 22.9099
1055 1 5.15477 0.952779 23.8728
2134 1 4.06339 1.34049 22.0404
1995 1 4.02791 1.52614 23.0109
77 1 6.41233 1.61996 23.3468
417 1 4.93979 0.499101 21.8003
6906 1 5.04979 2.15615 23.5077
6405 1 3.86255 1.27716 23.9667
6904 1 4.83876 2.02189 22.4572
4071 1 6.38148 1.16094 22.3987
6859 1 1.76766 3.70794 23.6984
1959 1 3.02547 2.96496 23.8465
1689 1 1.73358 3.48587 21.6128
4806 1 1.94693 3.55275 22.6552
7604 1 3.12892 4.69771 23.0678
184 1 3.18474 4.51555 24.0486
907 1 0.920909 5.24482 22.2091
710 1 0.592644 5.17008 23.1776
1110 1 2.83804 3.21416 22.1469
726 1 2.97955 4.69799 22.0087
7819 1 0.919576 2.84115 23.3248
235 1 0.685407 4.8616 24.1465
2917 1 0.0295421 3.90497 22.9735
4929 1 4.53856 4.9378 23.755
1131 1 4.38971 4.68048 22.6725
1993 1 4.94083 3.50399 22.9838
6590 1 5.38853 3.6288 21.9279
2224 1 5.17875 3.39431 23.9811
919 1 6.43591 4.28902 22.2237
7148 1 6.38737 4.40969 23.2716
6182 1 4.14982 4.44574 21.715
7053 1 6.51585 4.24272 24.3229
975 1 1.73734 6.63864 23.497
6916 1 2.33895 5.84035 22.7662
224 1 1.86345 6.51542 21.4983
4780 1 0.608301 6.6688 23.0841
618 1 2.57495 5.7007 23.7282
930 1 2.84417 7.38209 23.4186
1572 1 1.86701 6.94208 22.4196
6610 1 2.93932 7.67409 22.4045
6636 1 2.85969 6.98515 24.3936
841 1 0.836474 6.74516 24.2327
7045 1 0.26048 6.75619 22.1679
2175 1 1.84375 6.25177 24.4322
2005 1 3.85858 6.91649 21.7805
1001 1 3.84617 6.80122 22.7714
873 1 5.51771 5.62892 22.9178
971 1 5.6077 5.62524 23.9354
4713 1 3.72918 6.70456 23.7617
4066 1 6.06703 5.54321 22.0625
2787 1 6.7213 8.24679 22.2092
2993 1 6.53925 6.55074 23.2549
2768 1 5.35433 7.47291 23.5973
7865 1 6.82907 7.86091 24.0381
1486 1 6.8046 6.68983 22.3418
6769 1 6.30987 6.42344 24.3204
401 1 1.84103 10.2184 21.7748
536 1 1.91357 8.63167 23.0919
6659 1 2.22874 8.86545 22.1534
945 1 1.72918 8.56228 24.1431
7631 1 2.11608 10.1341 22.833
968 1 0.591144 9.79971 24.0427
2794 1 0.29772 9.32341 22.2231
7904 1 0.351828 9.89148 23.0833
718 1 2.3655 9.61655 23.6486
3751 1 3.90966 10.5315 22.9111
3520 1 4.52945 9.24743 22.2674
684 1 4.99009 9.24959 23.1409
5057 1 5.02761 9.32102 24.1531
989 1 4.11956 10.809 21.9838
908 1 6.63731 8.54672 23.2678
7805 1 4.91325 10.6254 23.8469
6814 1 4.92566 10.7214 22.8748
632 1 6.59538 10.2728 24.3102
43 1 6.83931 10.3597 23.3207
1 1 0.943599 13.3115 21.8805
678 1 0.991695 11.6367 22.0476
3767 1 1.89639 12.5753 22.4592
637 1 0.907451 11.7238 23.033
333 1 0.892002 12.0933 24.0066
1672 1 1.67931 12.77 23.4469
6937 1 1.0831 13.4915 22.8726
2859 1 0.87697 13.3796 23.9
6992 1 3.16334 11.4284 22.8047
604 1 3.0258 11.5013 21.8272
912 1 2.87082 12.0028 24.0884
6884 1 3.64159 11.0726 23.7158
3766 1 5.96311 13.4081 22.3955
4887 1 5.3306 11.7803 24.0802
3511 1 5.96169 12.88 24.2897
5772 1 4.92569 12.8998 23.7079
670 1 5.43259 12.0101 23.0138
3890 1 5.38351 13.1002 21.6007
7873 1 5.36906 11.8799 22.0148
2950 1 6.20969 13.283 23.369
206 1 1.13736 0.0878155 24.9592
6155 1 0.340311 2.60816 27.3763
7831 1 0.340459 2.5241 25.439
1943 1 0.426965 2.72666 26.4174
902 1 2.17127 1.73389 25.1155
610 1 1.71731 1.68344 26.1143
6972 1 2.99868 0.950555 24.8536
6105 1 2.56788 0.728922 25.7349
6990 1 1.69916 1.89597 27.0935
4320 1 2.27917 0.982397 26.72
2169 1 2.95702 2.6765 25.9936
2988 1 0.881553 0.459952 25.8965
2107 1 6.47372 1.11694 24.7758
2256 1 3.55442 2.72126 26.7889
3987 1 4.54541 1.25202 24.7859
5048 1 4.63609 0.278367 25.3848
4836 1 4.08498 0.0632582 26.9065
410 1 4.73329 1.34454 25.7644
2007 1 4.17848 1.75251 26.691
2044 1 6.55095 1.01162 26.8504
4009 1 4.89548 0.361334 26.3388
1337 1 4.85444 2.3085 24.5788
1948 1 6.61146 1.28034 25.8343
1081 1 1.5415 3.51798 24.8496
34 1 0.122547 4.28064 27.2374
147 1 2.93436 2.80052 24.9183
754 1 3.23112 4.86771 25.0032
904 1 2.05676 3.30691 25.9479
1079 1 0.650643 4.74126 25.1701
6924 1 1.8103 4.55772 26.416
7001 1 1.77489 3.2586 26.8884
6932 1 2.10977 5.27712 24.6372
6878 1 1.4174 4.76752 27.3273
3977 1 6.14412 4.41036 26.9022
1950 1 4.76902 2.81735 25.7551
7133 1 4.76021 4.0904 26.8143
6236 1 5.04245 3.49353 24.9742
5869 1 4.54938 4.66498 24.7364
179 1 4.42475 4.36916 25.854
1965 1 5.28777 3.02052 26.644
2194 1 5.78307 3.87439 25.6406
977 1 5.14202 5.37169 27.0369
5173 1 3.83896 5.45434 26.4972
6288 1 0.97335 7.28121 27.1976
3289 1 1.57053 6.00505 25.3603
3058 1 1.52152 5.91354 26.3836
6650 1 2.62907 5.73718 26.7447
6242 1 3.13801 6.8258 25.3815
1481 1 2.78444 7.1616 26.4716
6078 1 2.5685 5.76714 25.7259
7219 1 0.743874 6.86236 25.2141
7162 1 0.866742 7.19552 26.1616
127 1 2.98162 8.06091 27.2385
1755 1 1.76187 8.16425 26.1524
6186 1 4.21619 5.58052 27.4446
6156 1 5.20593 5.7489 25.0667
111 1 6.30249 6.35499 25.3044
210 1 5.35593 5.60653 26.0673
6766 1 4.82297 7.31321 26.6138