ITEM: TIMESTEP
430000
ITEM: NUMBER OF ATOMS
8000
ITEM: BOX BOUNDS pp pp pp
0.0000000000000000e+00 2.7564674686161492e+01
0.0000000000000000e+00 2.7564674686161492e+01
0.0000000000000000e+00 2.7564674686161492e+01
ITEM: ATOMS id type x y z
12 1 0.762032 5.28573 2.20934
71 1 0.732257 5.23826 0.256361
121 1 0.724793 5.24845 1.26635
6213 1 0.248159 4.46991 2.66336
6064 1 0.209736 4.44469 1.7427
4120 1 0.239659 3.65822 0.193083
126 1 0.182575 4.54899 0.758538
134 1 0.322503 7.32512 1.77715
127 1 0.217035 5.97557 2.74551
117 1 1.52054 5.84833 2.69793
179 1 1.392 5.93875 1.74866
74 1 2.50971 5.93696 1.70421
19 1 2.47031 5.91051 0.73019
73 1 1.37237 5.93365 0.743335
111 1 1.97932 6.63969 2.24242
116 1 1.94094 6.62052 1.24129
72 1 1.9638 6.70853 0.263916
169 1 2.82442 7.02824 2.70823
2137 1 2.76855 6.99718 1.74731
2077 1 2.75539 7.04817 0.763757
123 1 1.47056 7.32315 2.73765
124 1 1.38742 7.34213 1.74255
68 1 1.37367 7.38295 0.750173
70 1 2.24773 7.719 2.22122
2016 1 2.20547 7.76119 0.309417
2076 1 2.24682 7.74015 1.29241
139 1 0.828104 7.98827 2.27299
2036 1 0.756081 6.66039 1.22638
130 1 0.837303 6.6222 2.27621
75 1 0.740882 6.64025 0.2777
28 1 0.22776 7.24979 2.7393
76 1 0.12606 7.28032 0.820232
6125 1 0.153841 5.96432 1.76623
129 1 0.156821 5.97857 0.811144
119 1 3.311 6.35146 0.292556
108 1 3.27657 6.27491 2.23078
113 1 3.30825 6.35178 1.24653
79 1 3.0734 8.38025 2.72555
2126 1 2.99667 8.35349 1.77265
2106 1 2.93243 8.37186 0.787528
89 1 1.68615 8.45263 1.74752
2081 1 1.69338 8.49002 2.7191
34 1 1.79639 8.54949 0.823052
137 1 0.274166 8.74739 2.75019
987 1 0.204307 8.81129 0.822966
135 1 2.46807 9.08348 2.26253
90 1 2.52219 9.12295 1.3078
979 1 2.46896 9.23133 0.333795
81 1 1.08572 9.19531 2.2749
83 1 1.01719 9.20365 1.26889
33 1 1.0209 9.21073 0.335954
95 1 1.83117 9.71319 1.82778
100 1 1.85328 9.7517 2.78645
50 1 1.7904 9.72138 0.904545
44 1 1.27755 10.4634 1.35637
92 1 1.26978 10.4923 2.30898
1059 1 1.26026 10.5131 0.379123
196 1 0.587215 9.96054 2.78252
42 1 0.490093 10.0467 0.833363
88 1 0.511198 9.9969 1.82662
138 1 0.24227 8.80624 1.8051
1105 1 2.12725 10.9222 2.77325
1958 1 2.12794 10.8124 0.862851
1114 1 2.08805 10.879 1.84049
48 1 0.00762484 10.7933 1.32168
146 1 0.756004 11.2346 0.858886
994 1 0.728608 11.2065 1.82619
1108 1 2.94502 11.171 1.31085
1957 1 2.93129 11.1085 0.335792
1158 1 2.97115 11.2416 2.26307
1102 1 0.73799 11.2553 2.79324
1054 1 1.56736 11.6579 2.31431
98 1 1.60314 11.5689 1.34831
999 1 1.61305 11.562 0.381922
1112 1 2.42818 12.0181 2.78072
3951 1 2.44775 11.9438 0.861705
1960 1 2.47118 11.9982 1.81148
1162 1 1.28341 12.481 1.8048
1070 1 1.25783 12.4026 0.855384
1010 1 2.10029 12.7542 0.35651
3961 1 2.14982 12.7858 1.32168
1115 1 2.14645 12.8671 2.29147
3056 1 3.25961 12.4191 0.341194
1959 1 3.26929 12.415 1.30167
1009 1 3.31469 12.4014 2.27428
1103 1 0.338862 12.1216 0.372454
1057 1 0.464453 12.1092 2.30316
1056 1 0.398016 12.118 1.35409
1067 1 1.04793 13.3606 1.33269
1019 1 1.06131 13.3024 0.392702
1207 1 1.13079 13.3508 2.28708
1015 1 3.04177 13.1907 2.75338
1065 1 2.88767 13.2133 0.81314
1275 1 2.9298 13.2638 1.77753
3106 1 1.38339 12.5077 2.7808
1014 1 1.93339 13.6656 0.827832
3116 1 1.95344 13.6946 1.78457
3058 1 3.76568 13.7259 2.2458
1912 1 3.7702 11.5084 0.795799
1110 1 3.87216 11.6009 2.74721
3966 1 3.63281 13.6348 0.313808
1072 1 3.74512 11.6419 1.77462
1000 1 6.19465 11.823 0.272913
1080 1 4.0571 12.8399 0.78868
3013 1 4.11143 12.8827 1.77646
3008 1 4.12129 12.8788 2.77129
2143 1 4.52501 12.0831 0.288172
49 1 6.2871 11.7272 1.20971
1954 1 6.2874 11.7502 2.18703
1254 1 4.54606 12.0975 2.25138
99 1 4.54703 12.043 1.28938
1120 1 5.47484 12.2218 1.70487
3151 1 5.47446 12.2566 2.6853
3051 1 5.40279 12.2172 0.746891
2193 1 4.94814 13.0527 1.2489
3902 1 4.90365 13.0525 0.297645
3113 1 4.98762 13.0125 2.23363
3952 1 3.7331 13.6977 1.28935
6114 1 0.320192 4.44521 4.61347
216 1 0.769556 5.15828 3.1653
316 1 0.937324 5.04539 6.11574
311 1 0.963309 5.09124 5.12364
267 1 0.919203 5.12461 4.1532
6109 1 0.299223 4.39732 3.66715
6209 1 0.35326 4.40464 5.58631
6229 1 1.47983 5.82089 5.61926
227 1 0.30442 5.70859 5.61682
188 1 0.251466 7.2765 3.71846
212 1 1.53697 5.76768 4.67663
177 1 0.305107 5.77715 4.65446
167 1 1.54164 5.79809 3.6727
6225 1 0.207238 5.86261 3.70997
231 1 0.257368 7.21209 4.69
162 1 2.07817 6.59412 3.20195
185 1 2.24546 7.74867 3.20781
173 1 0.833632 6.58037 3.22512
273 1 2.02199 6.58008 5.15292
161 1 2.05277 6.53959 4.18425
224 1 0.905106 6.51564 5.13307
181 1 0.890173 6.53771 4.17834
189 1 0.848272 7.96139 3.24687
310 1 2.8537 6.95226 5.64589
168 1 2.89428 6.95831 3.66934
219 1 2.86499 6.97315 4.66896
274 1 1.51444 7.26798 5.64288
172 1 1.50327 7.2296 3.71564
2216 1 1.4851 7.28664 4.68371
222 1 2.2709 7.67115 4.19337
229 1 2.3855 7.67669 5.18738
184 1 0.876872 7.97408 4.18765
234 1 0.874451 7.96679 5.1533
128 1 0.257298 7.20979 5.66077
213 1 2.02503 6.51734 6.09946
211 1 0.895695 6.47596 6.09138
153 1 3.1177 6.12772 3.138
208 1 3.0842 6.14988 4.13986
260 1 3.01455 6.0622 5.12791
272 1 3.0489 8.32965 5.64964
174 1 2.99099 8.30738 4.66425
125 1 2.98741 8.28424 3.74149
133 1 1.67594 8.33354 5.64109
190 1 1.7247 8.31292 4.69183
120 1 1.69609 8.4124 3.69975
297 1 0.340577 8.72053 5.68452
1202 1 0.328718 8.74315 4.69503
296 1 0.353843 8.74539 3.75389
228 1 2.35331 8.99108 4.22909
2231 1 2.35769 8.91505 5.22559
2182 1 2.46143 9.01934 3.22866
6190 1 1.17067 9.12556 4.24844
131 1 1.15701 9.17113 3.24935
6240 1 1.18681 9.14681 5.20979
93 1 1.33115 10.4838 3.27855
147 1 0.601734 9.92392 3.77864
2181 1 1.88578 9.76485 5.68974
2241 1 1.86868 9.72092 4.71982
145 1 1.86287 9.71635 3.74404
193 1 1.29755 10.5166 5.20779
143 1 1.35097 10.4717 4.2272
199 1 0.57022 9.87002 5.65732
6144 1 0.572388 9.87376 4.72227
1217 1 2.14795 10.8566 4.71678
150 1 2.15195 10.9018 3.71388
1210 1 2.13652 10.9079 5.72678
141 1 0.0677813 10.6844 5.24006
1203 1 0.0535401 10.7238 4.2504
191 1 0.00660737 10.6777 3.27769
200 1 0.784838 11.2847 4.70158
1304 1 0.817803 11.2082 5.70657
198 1 0.766865 11.2054 3.74571
1153 1 2.98721 11.249 3.25368
1253 1 2.97023 11.2287 4.22734
348 1 3.02469 11.2788 5.21162
149 1 3.33714 12.3596 3.2612
1257 1 1.17181 13.4199 4.22677
148 1 1.58772 11.6532 3.2833
1201 1 1.19865 13.388 3.25166
1104 1 1.63656 11.6496 5.20352
248 1 1.60831 11.6356 4.22373
1213 1 1.37275 12.5795 4.71754
1962 1 1.39389 12.5309 3.73664
1165 1 2.58954 12.0935 5.69394
1156 1 2.41925 12.0045 3.74358
1164 1 2.52818 12.0005 4.72136
1219 1 1.37648 12.5019 5.69546
1159 1 2.18556 12.8665 4.22855
1220 1 2.18271 12.8726 3.23511
1265 1 2.15168 12.9317 5.19677
299 1 0.600637 12.0934 5.21272
197 1 0.559377 12.1312 3.26113
1208 1 0.582126 12.1297 4.19937
7255 1 1.08606 13.4736 5.15597
3207 1 3.03466 13.2036 4.66298
1174 1 3.03703 13.2159 3.69871
3361 1 3.04878 13.2264 5.61581
1160 1 3.35265 12.3333 4.21428
3156 1 3.44709 12.4091 5.18252
3112 1 3.79965 13.7059 4.18124
3162 1 3.83073 13.6679 5.19288
1205 1 5.03789 13.0767 3.24104
2086 1 6.36692 11.7656 3.15989
94 1 4.5956 12.0776 3.20762
1154 1 3.84403 11.6137 4.71781
1109 1 3.83362 11.58 3.73903
1268 1 3.85419 11.6212 5.68258
194 1 6.3975 11.6664 6.02837
144 1 6.38857 11.8058 5.08566
1069 1 4.13004 12.8805 3.69894
1113 1 4.17607 12.8145 4.6554
1224 1 4.21814 12.8397 5.62788
1215 1 4.68141 12.0168 5.17367
2146 1 6.36575 11.7702 4.1236
3161 1 4.60865 12.0013 4.19532
1155 1 5.52278 12.1801 3.67468
2186 1 5.54559 12.108 4.65052
2188 1 5.56021 12.1192 5.59849
2247 1 5.11531 12.9614 5.15667
2243 1 5.06044 12.9776 4.19291
3252 1 5.1854 12.9212 6.1015
3362 1 3.8044 13.7377 6.12399
3062 1 3.80099 13.7462 3.24226
6258 1 0.357649 4.38419 6.56085
363 1 1.05108 5.05151 9.00804
263 1 1.09959 5.02427 8.01343
318 1 1.00531 5.0202 7.06931
6315 1 0.441085 4.39705 8.51001
6310 1 0.40406 4.35723 7.53205
287 1 0.848982 7.90801 6.13776
223 1 2.31058 7.6715 6.14703
302 1 1.50289 5.81387 8.49242
253 1 1.51934 5.82759 7.50744
279 1 0.354153 5.68605 8.49591
236 1 0.370501 5.73456 6.59775
6275 1 1.45508 5.78235 6.55528
237 1 0.357039 5.75693 7.52068
419 1 2.11841 6.56094 8.96612
417 1 2.12413 6.51812 8.0092
367 1 2.1548 6.51891 7.05022
421 1 0.907087 6.46043 9.01311
324 1 0.917237 6.4827 8.03047
323 1 0.907901 6.49238 7.05363
408 1 2.96533 6.93197 8.51494
264 1 2.95305 6.97567 6.61109
303 1 2.89335 6.92439 7.5583
369 1 1.49282 7.23597 8.48212
288 1 2.32902 7.59784 9.00938
238 1 2.28781 7.64502 8.05378
322 1 1.44695 7.19403 6.58233
317 1 1.48555 7.18701 7.54529
315 1 2.29703 7.6277 7.09221
377 1 0.90521 7.86115 8.99911
336 1 0.391957 7.19721 7.5635
378 1 0.332518 7.15403 8.52876
332 1 0.35349 7.17546 6.65842
374 1 2.9682 8.23659 8.51928
175 1 2.97155 8.30353 6.59692
230 1 3.00595 8.28333 7.56003
232 1 1.71311 8.31346 7.57856
285 1 1.78525 8.31387 8.5422
183 1 1.64235 8.30759 6.64839
6340 1 1.19134 9.11495 6.1626
397 1 0.0139923 10.4767 9.07457
2232 1 2.32291 8.94014 6.17154
195 1 1.32942 10.4778 6.17964
328 1 0.401248 8.61302 8.53703
337 1 0.422947 8.53816 7.59451
292 1 0.326472 8.61299 6.66462
333 1 2.3494 9.01983 9.03828
278 1 2.37262 9.02844 8.08514
2237 1 2.38134 8.98816 7.12237
398 1 1.18595 9.05348 9.08586
180 1 1.14794 9.07446 7.13923
2281 1 1.21262 9.04984 8.09679
293 1 1.8175 9.66637 7.59345
283 1 0.594633 9.83497 6.60011
284 1 0.626414 9.88526 7.5525
243 1 1.80916 9.70607 6.65448
240 1 1.86221 9.77406 8.56641
392 1 1.23943 10.4157 9.09038
347 1 1.32815 10.4719 7.14549
350 1 1.308 10.4842 8.12539
286 1 0.616148 9.81526 8.519
1209 1 2.1331 10.8605 6.70685
343 1 2.13704 10.8781 7.66588
294 1 2.08864 10.9532 8.64163
249 1 0.0383593 10.6016 6.17939
3206 1 3.36127 12.4431 6.18127
1312 1 1.17541 13.4301 6.1436
1264 1 2.13057 12.9128 6.15417
1258 1 2.93875 11.2651 6.16313
289 1 0.75195 11.1659 8.59507
250 1 0.87688 11.2455 6.67823
3251 1 0.724323 11.1331 7.62477
6350 1 2.98816 11.3849 8.14225
7154 1 2.9497 11.2871 7.17232
2236 1 1.68941 11.6307 6.21894
1256 1 3.1292 11.3953 9.06986
393 1 0.571913 12.1225 6.20391
7365 1 1.09273 13.4985 7.11659
1315 1 1.90811 11.7931 8.14174
1303 1 1.70536 11.7287 7.21321
1309 1 1.98262 11.8616 9.07711
1223 1 2.17321 12.9506 8.09753
1318 1 1.33949 12.5686 8.57882
1362 1 2.4941 12.0559 6.6534
1319 1 2.66301 12.1751 7.5897
1418 1 2.73638 12.2316 8.56297
1365 1 1.30747 12.6468 7.64916
1307 1 1.37159 12.5713 6.67625
3306 1 2.21279 12.9392 7.12781
235 1 0.620941 12.0553 8.09296
1260 1 0.518139 12.09 7.15589
3367 1 3.04583 13.2783 6.61733
3462 1 3.05001 13.3332 8.53878
3412 1 3.0484 13.294 7.56228
1278 1 2.18988 12.9403 9.0615
1402 1 0.609916 12.077 9.09354
1321 1 1.99029 13.7738 7.62088
300 1 3.87771 11.6666 7.62676
3352 1 3.85613 13.7807 8.97319
1218 1 4.26934 12.932 6.59244
1415 1 4.35782 13.0516 8.49485
3401 1 5.16189 12.7195 8.97399
3263 1 4.72286 12.027 7.06871
3351 1 3.56801 12.5632 8.05909
3211 1 4.67589 12.0328 6.13254
3311 1 4.77991 11.839 7.99263
3256 1 5.2231 12.7894 7.98141
3157 1 5.22021 12.8921 7.05153
3261 1 3.51176 12.4872 7.12393
1255 1 3.85069 13.7521 8.02331
1322 1 3.83805 11.617 6.65684
3402 1 5.77206 11.9769 8.46472
3214 1 3.82175 13.6959 7.06696
3356 1 4.96163 11.6609 8.96289
244 1 6.55479 11.5661 7.97681
239 1 6.61574 11.6552 8.93112
1310 1 3.60453 12.5954 9.00887
295 1 5.62096 12.0267 6.5495
298 1 6.49962 11.6307 7.04073
1259 1 3.97361 11.7697 8.57737
3301 1 5.65872 11.9673 7.5224
1214 1 4.35722 12.9852 7.55513
413 1 0.912544 4.92232 11.8851
462 1 1.00815 4.99083 10.9313
6375 1 1.05768 4.94291 9.93021
6515 1 0.416323 4.23743 11.4093
6354 1 0.42121 4.31825 9.48726
6459 1 0.3831 4.30426 10.4559
416 1 0.419903 5.70481 11.4432
6470 1 1.48689 5.74624 11.4407
414 1 1.57353 5.70315 10.4397
476 1 0.403246 5.71403 9.4985
427 1 0.36617 5.69065 10.4829
361 1 1.53024 5.80678 9.47452
463 1 2.15879 6.42044 11.9089
358 1 2.17649 6.44732 10.9193
306 1 2.15393 6.50703 9.95571
528 1 0.908324 6.42507 11.918
527 1 0.978757 6.45123 10.9287
366 1 0.926047 6.39206 9.98388
474 1 2.94621 6.82071 11.438
458 1 2.99448 6.86384 10.4481
1439 1 2.98185 6.95436 9.47518
368 1 1.56684 7.17262 10.4742
473 1 1.54746 7.15403 11.4029
313 1 1.56329 7.20419 9.49342
423 1 2.39307 7.52724 10.9105
2477 1 2.47039 7.53144 11.8973
373 1 2.3806 7.62076 9.95444
466 1 0.93973 7.8421 11.8982
478 1 0.887493 7.84833 10.9291
428 1 0.887345 7.8271 9.94981
576 1 0.333223 7.07917 11.423
6380 1 0.34327 7.12961 10.467
426 1 0.277868 7.117 9.49466
479 1 1.76856 8.19931 11.4377
432 1 1.71644 8.192 10.4513
484 1 2.99105 8.24202 10.4361
2431 1 2.93933 8.33268 9.45653
384 1 1.68462 8.28714 9.4998
482 1 0.346567 8.61546 10.4673
472 1 0.366793 8.61637 11.409
489 1 0.327872 8.62733 9.49686
2411 1 2.41711 8.87211 11.9563
370 1 2.35263 8.89003 10.9894
325 1 2.3136 8.92073 10.0128
429 1 1.22866 8.95229 11.9444
483 1 1.23378 8.97144 11.0071
330 1 1.19541 8.99829 10.0254
329 1 1.86077 9.66126 11.4934
492 1 0.587713 9.67994 10.4642
344 1 1.80963 9.69873 10.5283
2296 1 1.82352 9.74633 9.56523
488 1 1.14497 10.4299 11.9377
443 1 1.17804 10.3632 11.0157
389 1 1.17962 10.3775 10.0316
477 1 0.577857 9.77238 9.51145
2427 1 0.641963 9.64817 11.5007
447 1 2.42401 10.4244 10.9603
1306 1 2.57324 10.3436 10.0375
1403 1 2.29079 10.4555 11.9463
1406 1 0.0687621 10.3227 11.0442
1353 1 0.0224547 10.3244 11.9915
7304 1 0.0630893 10.4288 10.0846
388 1 0.712757 11.0907 9.55393
390 1 1.99543 11.0464 9.58146
1408 1 0.467944 11.1155 11.4817
438 1 0.673822 11.1285 10.5596
1452 1 1.66373 11.0895 10.493
394 1 1.6007 11.2241 11.4508
342 1 2.63088 11.3128 10.4863
1301 1 2.6714 11.2591 11.4503
399 1 0.731738 12.0292 11.0049
349 1 2.02276 11.9553 10.0424
1419 1 2.8662 12.3384 10.5052
1414 1 2.07314 12.0126 11.0025
1458 1 2.07111 12.0045 11.9447
1409 1 1.38205 12.6424 11.4788
1274 1 1.3463 12.6321 9.55244
1411 1 1.38488 12.6293 10.4858
1424 1 2.21344 13.0594 10.0202
1479 1 2.25 13.0189 11.9463
1469 1 2.20854 12.9899 11.0055
500 1 2.94037 12.3814 11.4621
7403 1 0.635608 12.0075 10.0634
1401 1 0.776976 11.9376 11.9793
1407 1 2.83317 12.2966 9.53567
3457 1 3.05997 13.3841 10.4726
1404 1 3.05104 13.3682 9.46283
3506 1 3.07584 13.3957 11.4322
1358 1 3.42522 11.4985 9.98842
450 1 3.5595 11.5525 10.9011
1519 1 3.57486 11.6144 11.9176
1455 1 5.07444 11.4908 11.8586
3502 1 4.98034 11.4587 9.94204
1354 1 3.64704 12.706 9.99429
1355 1 3.74178 12.7185 10.9306
1464 1 3.77698 12.7561 11.9203
2396 1 4.38173 12.1289 10.4055
545 1 5.83618 11.9368 11.3745
3302 1 6.61093 11.5064 9.87818
340 1 6.6383 11.4853 10.8495
449 1 6.6788 11.4497 11.8381
1514 1 4.36693 12.0565 11.3857
3406 1 4.55069 13.2008 10.3798
1405 1 5.06227 11.4666 10.8997
2391 1 5.79788 11.9765 10.3738
494 1 5.17405 12.5618 10.8944
334 1 5.16818 12.5165 11.8663
1410 1 5.15826 12.6149 9.91453
3416 1 4.52873 13.1666 11.3725
3452 1 5.76701 11.9985 9.43062
1359 1 4.16725 11.9329 9.4911
1369 1 4.41019 13.1195 9.46905
511 1 0.931258 4.83753 14.7764
422 1 0.90712 4.91376 12.84
6570 1 0.933247 4.92171 13.7945
6464 1 0.35892 4.17307 12.3938
6455 1 0.39947 4.12043 14.3167
6569 1 0.3746 4.21756 13.3611
6535 1 0.42549 5.636 15.282
567 1 0.421596 5.59761 14.3189
562 1 0.401142 5.67766 13.3279
556 1 1.5917 5.54469 15.2365
506 1 1.52523 5.57804 14.3067
456 1 1.5455 5.61665 13.3445
516 1 0.343521 5.65484 12.3834
411 1 1.50611 5.70072 12.3793
507 1 3.00651 6.79049 12.403
529 1 1.61731 7.12728 12.378
534 1 2.20259 6.21624 14.7434
558 1 2.1267 6.29833 13.7848
513 1 2.13314 6.3584 12.8297
574 1 0.99772 6.33635 14.7937
524 1 1.01687 6.34534 13.8296
480 1 0.964357 6.44755 12.8445
630 1 2.96067 6.74265 14.3342
505 1 2.95609 6.73761 13.3367
678 1 1.56535 7.01502 14.319
579 1 1.61046 7.11371 13.3744
585 1 2.48939 7.46022 13.8676
588 1 2.3868 7.47853 14.7975
578 1 2.44666 7.50365 12.9144
628 1 1.05783 7.85817 12.9011
6575 1 0.385461 7.0686 13.3965
627 1 0.455838 7.07388 14.327
6424 1 0.378243 7.16126 12.3967
603 1 2.96783 6.78664 15.2663
583 1 1.87285 8.20965 13.3796
581 1 1.82598 8.20506 14.3141
533 1 1.89486 8.17097 12.4332
629 1 1.59051 6.98068 15.2977
618 1 0.434372 7.0075 15.2714
641 1 1.90027 8.19208 15.2559
584 1 0.470569 8.59052 14.3689
536 1 0.459591 8.59331 13.3998
6530 1 0.408268 8.58687 12.4093
520 1 2.39409 8.9495 14.8154
625 1 2.42106 9.01203 13.8867
475 1 2.35521 8.94878 12.9072
685 1 1.28832 8.95517 14.8523
575 1 1.28861 8.91905 13.9031
645 1 1.30189 8.95745 12.9011
1504 1 1.78997 9.67207 14.3679
439 1 1.83538 9.68926 13.4011
442 1 1.74302 9.74157 12.4314
542 1 1.19966 10.4023 13.8866
543 1 1.19225 10.3851 14.8622
1505 1 1.17744 10.4791 12.9091
493 1 0.652455 9.64859 14.3899
587 1 0.696842 9.68462 13.4072
532 1 0.660388 9.63071 12.4621
1453 1 2.29938 10.5023 12.9255
448 1 2.32858 10.4104 13.8772
1551 1 2.31194 10.4539 14.8515
643 1 0.0151586 10.3883 14.8908
597 1 0.0675536 10.3472 13.9359
6394 1 0.0998243 10.3273 12.9647
379 1 0.485216 11.0688 12.4358
490 1 0.574356 11.063 14.3989
495 1 0.551396 11.0738 13.3807
498 1 1.68565 11.1582 14.4052
1454 1 1.62055 11.1974 13.4429
499 1 1.64879 11.1961 12.4159
1462 1 2.78197 11.2647 14.3278
1457 1 2.74499 11.2826 12.4318
1507 1 2.76635 11.2787 13.3762
1558 1 1.07677 11.849 14.8712
1508 1 1.00648 11.8453 13.8686
1509 1 0.89052 11.9455 12.9279
1503 1 2.10544 11.9791 12.9086
1565 1 2.14772 11.9472 14.8586
1512 1 2.17167 11.9684 13.8531
1513 1 1.55824 12.6068 14.3169
1363 1 1.50961 12.6476 13.3845
1368 1 1.47051 12.6524 12.4267
1563 1 3.00927 12.3007 14.3174
1628 1 2.96367 12.3282 13.3851
1517 1 2.93362 12.3583 12.4122
1533 1 2.40009 12.9812 14.8434
1538 1 2.39374 12.9694 13.8691
1529 1 2.32183 13.0365 12.8945
1528 1 3.16821 13.4507 14.3273
3522 1 3.18123 13.4629 13.368
3456 1 3.10703 13.4157 12.3875
1523 1 3.23701 13.4512 15.2989
3562 1 2.98295 12.2909 15.2955
1510 1 2.84131 11.2635 15.2888
2532 1 6.71502 11.5163 14.7529
550 1 4.96743 11.3949 13.7582
1460 1 4.96367 11.3894 12.8114
2546 1 4.97825 11.2498 14.7424
1567 1 3.55814 11.6495 12.8787
1520 1 3.62366 11.6121 13.8217
548 1 3.65941 11.612 14.8242
2496 1 5.83046 11.7402 14.267
339 1 5.85863 11.8551 12.3427
594 1 5.81656 11.7651 13.3177
2497 1 6.70376 11.4633 13.8032
434 1 6.69367 11.4936 12.8358
3551 1 3.75297 12.7804 13.85
1610 1 3.85288 12.7453 14.8088
3511 1 3.74658 12.752 12.8809
3606 1 4.38478 12.0861 14.2937
435 1 5.17187 12.4607 13.7896
2491 1 5.23456 12.4741 14.7699
595 1 5.1968 12.5032 12.852
1459 1 4.38753 12.0888 12.3815
1412 1 4.34718 12.1395 13.3218
1570 1 4.6438 13.16 14.3214
3512 1 4.53959 13.1696 12.3803
2547 1 4.62281 13.1566 13.3515
3501 1 5.78206 11.6751 15.2094
3557 1 4.66366 13.1913 15.2834
1614 1 4.44267 12.0112 15.2663
6619 1 0.361744 4.09936 15.3172
6615 1 0.986143 4.81318 15.7201
621 1 0.590557 5.50264 17.2147
6673 1 0.358523 4.03873 18.1806
6613 1 0.355403 4.05928 17.2266
6623 1 0.339163 4.13673 16.2344
508 1 1.58931 5.46612 16.1873
611 1 0.508927 5.50769 16.2668
6624 1 0.0518721 6.29844 17.7152
617 1 1.6768 5.52077 18.111
6719 1 0.602808 5.53589 18.1734
566 1 1.6501 5.53201 17.1551
667 1 2.38841 6.08535 17.615
676 1 2.37592 6.12524 16.6832
6525 1 2.24673 6.14936 15.7042
623 1 1.10587 6.24123 17.664
573 1 1.07761 6.23864 16.7199
523 1 1.06851 6.2254 15.7534
723 1 3.0693 6.66184 18.1168
662 1 3.05466 6.7612 16.1784
713 1 3.04961 6.7172 17.1432
768 1 0.56371 7.00073 18.1726
668 1 1.7429 6.87805 17.1899
718 1 1.82816 6.79725 18.1412
679 1 1.74496 6.9022 16.2273
727 1 2.49562 7.36187 17.6717
683 1 2.42998 7.45432 16.7265
665 1 2.41226 7.50359 15.7419
6645 1 1.9135 8.02284 18.175
671 1 0.518017 7.01114 17.1882
6610 1 0.523311 7.06799 16.2314
633 1 1.7522 8.03243 17.2172
644 1 1.79405 8.1063 16.2639
6685 1 0.0421485 7.77256 17.7367
6578 1 0.00252398 6.26924 16.7613
544 1 1.86235 9.6905 15.3182
6539 1 0.707327 9.67411 15.361
6579 1 0.454309 8.63716 15.3242
638 1 0.0428679 10.3418 15.8594
795 1 0.169405 10.207 17.7911
631 1 0.477981 8.5359 16.3136
2626 1 2.45257 8.78331 17.6147
2731 1 2.3872 8.85105 16.6996
570 1 2.39411 8.85658 15.7639
684 1 1.37041 8.89223 16.7879
735 1 1.35507 8.90867 15.8281
780 1 1.42647 8.87721 17.7331
2781 1 2.03535 9.60838 18.209
2741 1 1.92753 9.59514 17.271
589 1 1.87763 9.66228 16.2647
639 1 0.742078 9.61841 16.3141
692 1 0.803259 9.47919 18.2444
689 1 0.736903 9.57515 17.2895
540 1 1.31955 10.3222 17.769
592 1 1.27126 10.3351 16.8255
530 1 1.28422 10.3715 15.8399
1554 1 2.31139 10.4462 16.7835
1659 1 2.32323 10.4605 17.7053
1502 1 2.38036 10.4836 15.8027
642 1 0.122938 10.2653 16.8247
590 1 0.771459 11.0092 18.3147
1604 1 0.676651 11.0202 16.3431
3601 1 1.73617 11.1702 15.3522
593 1 0.628016 11.0589 15.36
1557 1 1.58763 12.6241 15.349
744 1 0.679039 11.0426 17.3408
1608 1 1.71316 11.1223 16.314
1709 1 1.81776 11.1444 18.222
3651 1 1.73721 11.1842 17.262
599 1 2.81685 11.2649 16.288
1707 1 2.80523 11.2546 18.2396
1602 1 2.81159 11.2581 17.2523
1718 1 1.61665 12.6433 18.2308
547 1 1.05612 11.8923 17.8009
698 1 1.12559 11.8295 16.7938
1603 1 1.14832 11.8076 15.846
1653 1 2.21118 11.9601 17.7374
1661 1 2.17967 11.9608 15.8096
1662 1 2.21793 11.9597 16.7832
1612 1 1.56271 12.6376 16.2807
1657 1 1.5836 12.611 17.2557
1575 1 2.48195 13.0558 17.7189
1729 1 2.43221 13.0537 16.7908
1623 1 2.38235 12.9737 15.8264
1622 1 3.03204 12.3448 16.2702
1712 1 3.02462 12.2691 17.2275
1629 1 3.09149 12.2936 18.1728
1573 1 3.18154 13.4539 16.2564
1768 1 3.32851 13.4914 18.1649
1664 1 3.27644 13.4972 17.2264
3663 1 4.63428 13.0567 17.2077
3552 1 6.78652 11.5289 17.6823
2596 1 6.73634 11.5818 15.7408
1555 1 3.81723 12.7899 15.7921
600 1 4.98858 11.3161 15.7159
700 1 5.90809 11.6941 18.1284
2541 1 5.83268 11.7451 16.1882
1710 1 3.79642 12.7494 16.7517
1605 1 4.67536 13.0736 16.2511
1720 1 5.0536 11.3537 17.6657
1655 1 5.25312 12.3584 16.7302
2746 1 5.90837 11.7412 17.1291
3716 1 3.82126 12.7361 17.728
549 1 3.61679 11.5732 15.8196
1553 1 3.64431 11.4344 16.8011
1618 1 4.41866 12.0175 16.2422
1665 1 5.23776 12.3748 17.6649
699 1 4.71181 13.0644 18.1789
1670 1 4.99746 11.3092 16.7158
3607 1 5.2838 12.4799 15.7068
1568 1 4.4018 11.9847 17.216
3706 1 4.45202 11.9985 18.1825
1669 1 3.65609 11.5075 17.7562
2643 1 6.82716 11.6171 16.7156
661 1 1.69547 5.49598 19.0391
813 1 0.615805 5.46224 21.0798
666 1 0.614084 5.48373 19.1432
6670 1 0.592397 5.49216 20.1089
6808 1 0.386759 3.95016 21.0363
6778 1 0.405028 3.99803 20.1025
6728 1 0.370017 3.99041 19.1383
620 1 1.74713 5.45138 20.029
877 1 0.0101534 4.77532 20.5987
826 1 2.41326 5.91207 20.567
762 1 2.42953 6.08564 19.5573
712 1 2.3979 6.09992 18.5802
711 1 1.20263 6.10557 20.6127
761 1 1.1483 6.17685 19.6316
626 1 1.12949 6.23543 18.637
809 1 3.07708 6.59326 21.0161
763 1 3.11411 6.64622 20.051
818 1 3.08076 6.67002 19.0567
722 1 2.00358 6.72076 21.0431
822 1 1.86708 6.72312 20.0995
674 1 1.83982 6.77889 19.1355
819 1 2.59546 7.37526 20.5663
745 1 2.56597 7.37052 19.6352
775 1 2.48207 7.36555 18.6521
728 1 1.42073 7.50701 20.6113
624 1 1.36227 7.60544 19.6664
2891 1 2.12091 8.16658 20.1473
995 1 2.13136 8.06711 21.1036
2771 1 2.07032 8.16418 19.2026
766 1 0.740138 6.90969 21.078
771 1 0.680619 6.92837 20.1426
721 1 0.671947 6.95599 19.1526
6799 1 0.128746 6.21264 20.6084
6724 1 0.0833386 6.27398 18.6604
6683 1 0.083404 6.22545 19.62
731 1 0.0302127 7.69306 18.7036
2727 1 2.51854 8.76198 18.557
800 1 1.6018 8.91406 20.6216
725 1 1.50142 8.8743 18.6993
724 1 1.5399 8.91523 19.6455
2827 1 2.29212 9.49981 21.0857
2776 1 2.15858 9.5688 20.1267
2721 1 2.16141 9.57226 19.1862
789 1 0.829076 9.34647 21.1116
738 1 0.83039 9.41285 20.185
688 1 0.828456 9.50823 19.2307
784 1 1.39383 10.256 19.7242
836 1 1.43933 10.0687 20.6472
734 1 1.32096 10.2895 18.7509
1752 1 0.877517 10.7418 21.1825
733 1 0.739224 10.9502 19.2684
783 1 0.285568 10.0932 20.6824
834 1 0.230835 10.1317 19.7524
690 1 0.190408 10.2211 18.7815
2898 1 2.39393 10.4179 20.6399
649 1 2.40029 10.4726 18.6871
2791 1 2.42349 10.444 19.6508
693 1 0.733511 10.9567 20.2087
648 1 1.79556 11.1874 19.1845
788 1 1.80741 11.1489 20.188
2937 1 1.73676 11.3057 21.1771
1758 1 2.82151 11.2553 21.0842
1703 1 2.87811 11.2155 20.1308
697 1 2.82908 11.2641 19.1973
1755 1 1.13547 11.9816 20.6836
798 1 1.16445 11.874 19.7291
1702 1 1.09198 11.8452 18.7643
1713 1 1.72848 12.6967 20.1708
1808 1 2.30781 11.9641 19.6666
7760 1 2.24324 12.0173 18.6933
1757 1 2.32586 11.9676 20.6128
1613 1 1.6526 12.6132 19.1846
1674 1 1.71875 12.6609 21.1496
1714 1 3.13186 12.2697 21.1131
1673 1 2.46552 13.0683 18.703
1761 1 2.52339 13.0264 19.6683
748 1 2.55621 13.0252 20.6523
794 1 3.12063 12.3194 20.1352
750 1 3.10447 12.3389 19.1755
1678 1 1.66547 13.5692 19.7222
3772 1 3.35445 13.426 19.1681
1624 1 3.40538 13.4302 20.1211
1817 1 1.63721 13.5941 20.6975
1819 1 3.42859 13.4493 21.1145
1704 1 5.08369 11.3482 18.6415
1663 1 3.70756 11.5569 19.67
3661 1 3.64339 11.6036 18.7353
1705 1 3.70921 11.5938 20.6178
2597 1 5.83475 11.5493 20.0945
2747 1 5.89297 11.6324 19.1297
1715 1 5.94776 11.6456 21.1008
3701 1 3.96297 12.6961 19.6429
3726 1 3.91466 12.6865 18.6826
3811 1 3.95058 12.7617 20.6202
3852 1 4.53917 11.9337 21.1001
3754 1 4.48897 11.977 20.1663
2792 1 4.51389 11.9603 19.2023
844 1 5.31651 12.2881 20.5956
749 1 5.34547 12.326 19.6252
3711 1 5.33041 12.3764 18.6466
3761 1 4.80529 13.0585 20.1062
1660 1 4.77965 13.0868 19.1326
3912 1 4.84294 13.1096 21.0639
3553 1 6.80304 11.5197 18.613
845 1 6.84447 11.4621 20.5751
1759 1 6.778 11.5617 19.6317
2798 1 4.22985 13.7512 19.6005
867 1 0.124471 4.7028 22.5129
6919 1 0.130835 4.69718 23.4934
6818 1 0.338208 3.86686 22.0211
967 1 0.714611 5.38978 23.9946
866 1 0.716197 5.42382 23.0187
816 1 0.657443 5.40464 22.0302
6868 1 0.531927 3.8465 22.9728
6920 1 0.319915 3.72419 23.9316
872 1 0.0366122 4.71993 21.5545
6970 1 0.162253 4.65156 24.4175
922 1 0.127103 6.12818 24.4665
817 1 0.147002 6.18775 22.5305
856 1 2.4265 5.96272 21.5267
755 1 2.37174 5.91799 23.4823
962 1 2.36858 5.88089 24.41
864 1 2.40278 5.90233 22.4486
963 1 1.33862 6.08107 24.4469
907 1 1.27364 6.12159 23.5155
914 1 1.29735 6.15649 22.5218
6875 1 1.34201 6.10501 21.5478
770 1 2.64276 7.28357 21.5364
909 1 3.08036 6.48258 22.9905
863 1 3.19682 6.55304 21.9809
767 1 2.01653 6.74727 22.0602
916 1 1.94882 6.73911 23.9576
823 1 1.98771 6.74033 23.04
6730 1 1.42563 7.47485 21.5799
919 1 2.70782 7.26336 23.4911
737 1 2.71788 7.31061 22.5348
778 1 1.43994 7.47851 23.5263
924 1 1.44489 7.49122 22.5246
985 1 2.19213 7.98208 23.9812
2921 1 2.14067 8.02431 23.021
880 1 2.1773 8.08811 22.0551
928 1 0.765893 6.85844 23.9692
726 1 0.73106 6.85186 22.0609
2821 1 0.765711 6.84891 23.0215
884 1 2.68618 7.19999 24.4813
972 1 0.150058 6.12767 23.5242
732 1 0.178779 6.2056 21.5875
932 1 0.0697683 7.38005 24.4796
902 1 3.17448 6.44193 23.927
892 1 0.0365442 7.37794 23.5234
879 1 0.0213143 7.40121 22.5637
842 1 0.0843512 8.89731 23.5532
824 1 1.63674 8.74129 23.5228
787 1 1.6651 8.88546 21.5907
829 1 1.68409 8.79156 22.5354
925 1 2.4377 9.31261 23.9982
830 1 2.3281 9.50241 22.0811
920 1 2.39619 9.37934 23.0156
992 1 0.924346 9.21128 24.0056
840 1 0.889781 9.24515 23.0598
1753 1 0.872497 9.30785 22.0959
947 1 0.348205 10.0518 22.613
883 1 1.56893 9.82697 22.579
934 1 1.64557 9.81436 23.5217
838 1 1.52753 9.87654 21.5815
3801 1 1.17474 10.6 23.0722
895 1 1.09042 10.649 22.0808
839 1 1.15803 10.485 24.0708
897 1 0.4159 10.0275 23.5399
7755 1 2.06042 10.7817 23.5411
793 1 2.162 10.6842 22.61
792 1 0.307007 10.1023 21.6519
2992 1 2.24927 10.5411 21.6199
923 1 1.68193 9.70832 24.4561
827 1 0.0987608 8.87374 22.5686
2981 1 1.73182 8.70438 24.4817
978 1 0.0723485 8.86861 24.4951
833 1 0.0338098 8.86203 21.6033
1827 1 1.72925 13.6102 22.6109
1708 1 2.826 11.1947 22.0846
3861 1 2.91133 11.1602 23.0315
1763 1 2.93576 11.1523 24.0153
888 1 0.628387 11.2827 23.5817
893 1 0.681118 11.3989 22.5919
847 1 1.01981 12.3498 22.5656
1807 1 1.00636 12.1462 21.6606
1910 1 1.54145 11.5961 23.0809
2796 1 1.54143 11.5451 24.0507
1809 1 1.58918 11.4703 22.1342
1872 1 1.93195 12.7052 24.0497
1754 1 2.3843 11.9991 22.5889
739 1 1.08061 12.3325 23.5851
1864 1 2.40333 11.8933 23.5903
743 1 2.3388 11.9762 21.631
3771 1 1.85859 12.7047 23.0958
3776 1 1.84793 12.7333 22.1468
1764 1 2.58271 13.0588 21.5832
899 1 2.70592 13.0947 22.5667
1760 1 3.19943 12.3439 22.077
1810 1 3.22328 12.3324 23.0667
889 1 2.67068 13.1308 23.5572
1805 1 3.23981 12.3713 24.0325
1832 1 1.62108 13.611 21.6519
1801 1 0.197167 12.0638 23.1593
1851 1 0.20882 12.0109 24.1346
1913 1 1.78977 13.6566 23.5698
1915 1 3.46191 13.4571 22.0509
1920 1 3.4904 13.5027 23.0476
945 1 3.55121 13.4917 24.0205
948 1 3.73174 11.6047 22.59
47 1 3.72447 11.5713 23.5519
1853 1 3.66027 11.6088 21.6196
2848 1 5.93424 11.5321 22.0698
2947 1 5.91818 11.5526 23.0149
3808 1 6.02564 11.706 23.966
3862 1 3.97194 12.7176 21.5602
1870 1 4.01752 12.6992 22.5358
1865 1 4.0553 12.7886 23.5252
3857 1 4.52741 12.017 23.0235
3917 1 4.53765 11.8756 22.0731
3967 1 4.57401 11.9556 23.9845
894 1 5.35428 12.3199 21.5772
3907 1 5.35333 12.3139 23.5047
3807 1 5.40735 12.2791 22.5346
3916 1 4.95187 13.154 23.9909
3856 1 4.81466 13.0674 22.0231
3956 1 4.88585 13.0522 22.9703
3001 1 5.37998 12.3446 24.4712
3006 1 4.11871 12.7568 24.4907
1952 1 3.7714 11.5207 24.4882
3819 1 4.42384 13.7771 23.5141
6917 1 0.282739 3.74342 24.9215
6883 1 0.14024 4.61471 27.311
6959 1 0.0944602 4.62048 26.3534
977 1 0.754734 5.33593 25.874
6960 1 0.711707 5.36941 24.9231
176 1 0.710672 5.28313 26.8542
6928 1 0.27364 3.72355 25.8417
6071 1 0.293008 3.71478 26.7922
6 1 0.0878485 4.67343 25.4004
774 1 1.42469 7.46099 24.5141
937 1 0.0380269 7.34075 26.4318
976 1 0.125847 7.31626 27.3948
971 1 0.131576 6.04385 25.409
974 1 1.36143 5.98048 27.3585
921 1 2.43973 5.86758 26.3613
22 1 2.49615 5.89504 25.3516
63 1 2.47042 5.87287 27.3703
17 1 1.33916 6.02992 26.3864
951 1 1.35706 6.04884 25.3994
8 1 1.96531 6.66663 25.8834
67 1 1.95056 6.70604 26.8485
20 1 1.93615 6.72352 24.9205
36 1 0.765943 6.69037 26.8825
2066 1 2.75796 7.12787 27.335
868 1 2.72781 7.15792 26.395
908 1 2.69404 7.1931 25.4492
918 1 1.36252 7.38066 26.407
23 1 1.34984 7.42619 27.3577
873 1 1.40347 7.364 25.4691
2973 1 2.15016 7.8478 26.9134
80 1 2.12459 7.84882 25.9735
969 1 2.16767 7.94249 24.9779
27 1 0.753001 6.72494 25.9252
973 1 0.77662 6.78772 24.9588
982 1 0.165159 6.03861 26.3849
31 1 0.118811 5.96918 27.3854