ITEM: TIMESTEP
499000
ITEM: NUMBER OF ATOMS
8000
ITEM: BOX BOUNDS pp pp pp
0.0000000000000000e+00 2.7564674686161492e+01
0.0000000000000000e+00 2.7564674686161492e+01
0.0000000000000000e+00 2.7564674686161492e+01
ITEM: ATOMS id type x y z
1014 1 2.0633 1.38708 1.86973
3993 1 2.34108 2.32422 1.34281
2407 1 1.05795 1.70393 1.96593
3998 1 2.85257 2.30487 2.94131
2412 1 3.0839 1.49629 1.49187
5810 1 1.74477 2.32426 2.89568
8000 1 1.31119 0.222522 1.34984
495 1 2.68459 1.58851 0.204667
2489 1 0.800991 2.16638 1.00624
920 1 0.0522084 0.673529 0.106608
2060 1 0.552456 1.15226 2.69997
5149 1 0.804647 0.0742039 2.50178
4400 1 1.71357 0.345075 0.16416
2051 1 0.360633 0.355824 1.49982
3079 1 3.70622 1.83787 2.27543
1152 1 4.19232 0.859296 1.33339
7913 1 3.49447 0.487559 2.78915
3033 1 6.724 1.20369 1.85894
1432 1 5.54081 1.34355 1.11059
5074 1 6.74316 0.781561 0.298017
2023 1 3.98954 1.78765 0.919384
390 1 3.50999 2.71169 1.13563
3634 1 5.8933 2.73785 2.90225
4570 1 5.80991 2.56842 1.2245
4990 1 4.92817 1.5636 2.86417
4117 1 2.63299 3.60392 0.740829
1017 1 2.24365 3.61738 2.16212
6459 1 1.16526 3.66304 2.21486
7764 1 2.6343 4.86516 1.48897
5395 1 2.02674 5.22045 2.37255
6698 1 1.02349 4.34152 0.818115
6636 1 0.110902 4.53291 1.16194
3192 1 5.91869 5.02097 0.23892
2384 1 3.85471 3.34499 0.334895
4063 1 3.85831 4.48748 1.35306
3012 1 5.48909 3.28744 2.04913
1974 1 6.6164 4.85564 1.68974
6885 1 3.51829 5.41346 1.71441
240 1 5.74872 4.95322 2.85518
5945 1 6.74372 2.88344 0.770444
1823 1 1.40895 5.79924 0.52966
961 1 2.75673 5.99956 2.72362
1580 1 2.31565 6.72212 0.547432
6935 1 1.28493 7.98572 1.19961
4852 1 3.30096 7.22852 0.764763
6281 1 3.32513 7.58251 2.89504
1436 1 1.01556 6.41846 1.18578
4917 1 1.79102 7.05458 2.17228
7247 1 1.05251 5.51397 2.06473
5645 1 0.495835 7.24975 2.37672
6241 1 0.156706 6.44124 1.83519
5130 1 6.40202 6.39989 2.83059
343 1 4.94335 7.34079 1.51499
193 1 5.41648 5.76933 1.09633
732 1 6.22283 7.81548 0.502339
7180 1 6.05769 7.3207 1.96318
1687 1 4.13843 6.60273 1.99625
3828 1 5.31073 7.99985 2.80944
4253 1 4.48237 7.60732 0.505343
4257 1 4.35587 6.29231 1.01112
2042 1 6.86335 6.77829 1.85994
7951 1 0.945542 9.02943 0.201994
7876 1 2.14728 9.47715 0.0821543
3050 1 0.229261 8.60055 1.04607
2613 1 2.59028 8.8965 1.18078
3910 1 0.649263 9.93492 0.75424
3559 1 2.38441 10.2581 0.707249
7803 1 3.09979 9.96434 1.36576
2641 1 3.04816 9.21387 2.37809
4830 1 1.7629 8.54379 2.95854
1199 1 2.10866 10.658 3.00177
7623 1 0.658827 9.9283 1.78305
223 1 2.91138 10.3121 2.36839
90 1 0.837078 10.7101 2.42207
2627 1 4.86801 9.83094 1.93669
6020 1 5.01758 8.35372 1.19308
3766 1 6.24818 10.3233 1.86567
7675 1 3.56367 9.19316 0.883557
1546 1 4.96822 8.72344 2.19879
192 1 3.8182 8.72776 1.72181
4929 1 5.03106 10.839 3.01914
4569 1 4.27744 10.119 2.97109
2869 1 6.56521 9.27899 2.67608
5263 1 6.14898 8.31725 1.39962
1287 1 1.77567 11.8477 2.4053
7332 1 2.87513 12.535 0.380417
623 1 2.69665 12.4426 1.57172
4351 1 3.12605 12.1285 2.70529
6541 1 1.58194 13.0564 0.747808
1826 1 0.891697 13.3021 1.47188
7027 1 1.88357 12.0308 0.582575
6924 1 0.578417 12.076 2.20089
3383 1 1.29564 12.247 1.38828
5886 1 3.37187 13.1236 1.09894
5240 1 2.21717 12.9254 2.43277
6916 1 0.521543 11.2261 0.852048
3271 1 6.54188 11.2042 0.814935
317 1 4.49025 12.7215 0.786007
125 1 5.11569 12.5516 1.66765
4730 1 3.53831 13.7582 2.89045
6911 1 3.7681 11.4545 0.209331
5765 1 4.82985 13.5682 1.23182
4255 1 3.26594 1.55385 3.50329
311 1 0.110821 0.514027 4.56749
2575 1 0.882403 0.25282 3.81544
2056 1 3.24335 0.471848 4.49831
6682 1 1.6376 2.31265 5.06425
4632 1 1.94247 1.15604 3.46686
2639 1 1.21178 1.32849 5.15235
7241 1 2.17516 0.280168 5.6092
1314 1 2.15127 1.54364 5.92296
7107 1 0.722346 2.65694 3.91479
1933 1 1.17606 0.87305 6.09137
6430 1 0.831348 0.232732 5.37407
5322 1 0.735022 1.23936 4.06464
3632 1 3.28588 2.46991 5.87706
4293 1 2.4452 2.55159 4.21141
767 1 0.247327 1.10648 5.64694
6534 1 3.3758 0.67123 5.83195
7201 1 6.50092 1.74494 3.23367
1800 1 4.54668 2.45297 3.23529
859 1 5.89368 0.0151461 5.60689
4527 1 6.02964 1.1573 5.02324
3089 1 6.12423 0.787837 4.03448
1484 1 4.04328 0.179349 5.06806
1405 1 4.26025 1.17021 3.63539
4704 1 6.46704 0.204346 3.17515
6037 1 3.70285 2.35796 4.59016
1658 1 4.52739 2.65232 5.34157
5268 1 3.82038 1.58755 6.08652
703 1 2.9902 5.04828 3.07274
1803 1 0.189222 5.21567 5.0331
5205 1 2.57688 3.27052 5.87732
7466 1 1.64091 4.46645 3.48927
5813 1 0.683118 3.78587 3.76422
2408 1 2.29956 3.53777 3.84814
4572 1 3.07398 5.17813 6.11933
6735 1 0.789526 3.54477 5.67522
477 1 2.16729 5.0059 5.62384
1812 1 3.28534 3.31974 4.69494
1517 1 0.321156 5.18933 3.40804
3141 1 0.0971459 3.61276 4.67617
2568 1 5.30149 3.55125 3.11626
6213 1 6.79927 4.73308 5.21477
4395 1 4.69438 4.60106 3.75322
3977 1 3.84897 3.24338 3.82114
5026 1 4.14394 4.49108 4.62953
2482 1 4.82961 5.04898 5.63284
6567 1 4.16574 3.63305 5.24054
2346 1 6.3843 2.85442 4.28591
2018 1 1.32436 6.19892 5.08481
3470 1 0.36666 6.23302 5.49787
7952 1 2.36724 5.85736 3.68291
360 1 1.11039 7.68778 4.67789
7906 1 1.99528 6.85436 5.8914
1166 1 2.94884 6.3381 4.37628
1663 1 0.600064 7.75763 5.66856
948 1 1.4134 5.57388 3.74274
2946 1 2.33772 8.04208 4.17675
2153 1 2.78442 7.04058 5.10837
4817 1 2.08417 8.25293 5.56707
4419 1 4.35989 6.44579 4.31219
4036 1 5.69488 5.55807 4.2882
2008 1 4.11804 7.73565 3.61086
2347 1 5.2224 7.32987 5.35882
3867 1 5.35189 6.26665 5.46139
4268 1 5.13639 8.16077 3.84366
2993 1 6.69154 7.80927 5.56774
154 1 3.98382 6.34427 5.41365
6182 1 5.15279 8.24477 5.80919
1264 1 6.76972 8.05998 4.59464
7290 1 1.93248 10.5653 5.65111
3715 1 1.50262 8.79546 4.392
1951 1 3.02955 8.56631 5.88448
3587 1 0.779522 8.64489 5.13753
2099 1 3.365 8.30975 4.61332
1153 1 1.69163 9.35452 5.41368
6533 1 1.22968 10.1777 4.98554
2620 1 0.237233 8.74361 3.68281
1376 1 3.26541 8.67682 3.34538
1056 1 2.34483 8.92676 3.68767
7362 1 0.0643143 10.6653 3.23972
393 1 4.03576 8.37906 5.96345
1868 1 6.34175 8.2914 3.16335
467 1 3.7759 10.5066 3.96923
5060 1 6.11324 10.1318 3.10062
4460 1 5.09705 9.87827 3.67913
846 1 4.21917 8.69101 4.04447
5854 1 5.40841 9.00196 3.15512
6521 1 5.84619 9.08686 5.89121
7051 1 3.88042 10.7945 5.73311
7560 1 6.88117 10.4165 5.31907
1694 1 1.15445 11.5935 4.10234
3551 1 0.965036 11.8205 3.12602
1492 1 0.0633803 11.65 4.26408
1771 1 0.974409 12.7372 4.34276
3915 1 3.25798 12.8328 5.25219
7684 1 2.82863 13.0161 3.21858
5612 1 3.12072 11.0558 3.41058
4646 1 6.5773 13.6958 3.1665
7930 1 6.62226 11.1507 3.88553
630 1 5.62138 13.6121 3.55654
485 1 3.46812 12.7089 3.97937
1217 1 5.98727 12.9299 4.27859
5008 1 6.74015 12.4087 3.17057
1989 1 3.70182 13.6304 4.88623
452 1 4.92199 11.9369 4.41202
5678 1 5.08039 11.4152 5.94371
6291 1 3.60485 11.8781 4.6999
4004 1 4.51616 13.4579 5.79091
714 1 4.1556 11.4657 3.91746
3683 1 6.51097 12.2113 5.38869
3718 1 4.56286 13.5828 3.21348
670 1 0.012018 2.34289 8.82792
1888 1 0.399099 0.634085 6.737
7219 1 2.7749 1.1306 8.35361
6372 1 2.75134 0.314911 7.31695
6625 1 0.767604 1.61708 6.7687
4600 1 1.44112 0.326167 8.42974
2204 1 0.766316 0.82374 7.8978
3799 1 1.56048 1.52281 7.65211
6687 1 1.90459 2.32412 8.18323
4069 1 2.68139 2.64921 7.07532
5748 1 3.17115 1.46995 7.41079
4054 1 0.629359 1.52283 8.95351
5050 1 0.764348 2.25076 7.71633
1639 1 2.94325 2.21236 9.14546
4951 1 5.69927 0.791291 6.73993
1223 1 4.56837 0.0812977 9.14653
7616 1 6.16587 0.457128 7.56056
7502 1 3.5774 1.88437 8.33208
6948 1 5.9784 1.92459 7.50852
4173 1 6.28758 1.48293 8.83011
2740 1 3.80694 0.929346 8.05896
7149 1 4.43348 2.52651 8.79163
7862 1 4.47815 1.70727 7.75265
6180 1 3.84224 2.16493 7.01877
5464 1 6.13139 2.31087 6.46243
2233 1 0.246059 4.85509 8.65287
6275 1 0.139348 2.97197 6.26746
1530 1 1.52995 2.84347 7.36629
2583 1 0.843577 3.67164 6.63153
4530 1 0.716299 3.34811 8.41101
5095 1 1.04902 4.56581 6.25104
7797 1 3.21108 5.18449 7.15387
4943 1 2.63703 3.84953 8.69074
1425 1 2.02151 4.37108 7.34813
5647 1 1.92312 5.48727 8.51525
4088 1 6.4181 3.20816 8.72081
3358 1 3.56904 3.25962 7.04618
2891 1 4.32197 4.91573 7.68598
2015 1 4.23529 4.48329 6.68031
316 1 6.1243 3.26091 7.04699
4434 1 4.57047 4.57851 8.72042
6615 1 5.4512 3.72999 6.41703
3701 1 5.44882 3.89088 7.46769
2647 1 0.377335 6.87311 8.8545
5433 1 1.91784 6.43304 6.83289
4533 1 0.887928 5.89767 8.03506
1430 1 3.0316 6.50099 8.20507
5017 1 1.4217 7.88232 6.89072
737 1 3.01398 7.74006 8.73061
5970 1 2.25039 7.05493 8.65038
5038 1 3.20837 7.54719 7.23095
1218 1 0.193269 6.38857 6.85467
3387 1 6.88284 7.33987 7.40785
7566 1 5.1948 5.60625 8.87748
6215 1 5.30956 8.03779 7.99392
4078 1 5.88803 7.99356 8.899
4011 1 4.63916 8.13224 6.80414
7092 1 3.96234 5.94552 7.31064
1494 1 5.29638 7.34598 6.40101
661 1 4.47002 5.66236 6.4202
3043 1 4.43385 7.12727 6.89047
6658 1 5.03484 6.2364 7.58537
3604 1 6.22349 7.10388 8.38754
4459 1 4.25152 6.108 8.69673
7460 1 2.26851 9.96788 9.04134
3236 1 1.81719 9.69476 6.88557
1069 1 0.817213 10.7797 8.77685
7836 1 0.0184072 9.1811 7.67662
1410 1 1.53286 8.73667 8.84408
5055 1 1.67842 8.33666 7.84743
1138 1 2.54883 8.60645 7.02034
4141 1 1.07525 9.06323 6.16403
4719 1 2.55808 8.66992 8.38401
335 1 1.11949 9.12899 7.51405
2553 1 0.199263 9.90601 6.98584
4991 1 6.61384 8.79029 8.86373
7456 1 5.66689 10.4814 7.56568
2593 1 4.65691 9.16508 6.81749
7877 1 5.00792 10.0402 8.3047
6825 1 6.86258 9.17508 7.62034
6036 1 6.41764 10.5209 8.29748
3724 1 3.46275 8.395 7.98228
5335 1 0.0969497 11.9943 6.54487
6272 1 3.06645 12.6451 6.77914
2300 1 1.63763 12.5513 8.84939
1008 1 2.08262 13.1492 7.08146
2754 1 1.52915 13.4358 8.33349
4432 1 2.39973 12.1749 7.83278
4532 1 1.1921 13.2552 6.38407
2429 1 0.772341 11.2505 7.85791
3601 1 0.363042 12.2412 9.17186
6409 1 6.81974 13.3948 6.52397
2028 1 5.17927 13.51 9.06316
6029 1 6.84101 13.2298 9.09692
5689 1 6.1972 12.3669 8.44859
4587 1 4.65368 12.5888 7.23643
5711 1 5.28248 12.8823 8.1229
848 1 5.00302 11.4935 7.70047
310 1 4.153 11.1711 8.82666
7000 1 3.48614 11.5487 7.2879
7986 1 5.56912 12.0592 6.90408
2621 1 6.4628 11.4513 7.22894
7709 1 1.81947 2.14784 9.88698
2915 1 1.15418 1.55838 11.3195
353 1 2.77203 1.45219 11.4025
2804 1 0.0459547 0.399059 9.25003
5749 1 1.93433 1.11238 11.9603
5741 1 0.463535 0.383654 12.0808
21 1 2.11573 0.958756 9.62947
440 1 3.35418 0.98516 9.1991
6021 1 3.49274 1.66367 10.4896
6073 1 6.86539 1.34649 11.3862
5690 1 4.98454 2.11695 9.59927
2642 1 5.15589 0.819546 11.397
6645 1 3.77242 0.412915 12.2275
977 1 6.44196 2.35427 11.7303
4465 1 6.1773 2.69837 10.8009
5500 1 6.47122 1.58804 9.94079
386 1 4.18831 1.56442 9.2445
1873 1 0.239468 4.6414 11.838
288 1 1.67338 5.13305 9.71858
6247 1 2.63039 5.44832 9.84585
7790 1 2.62335 3.33747 11.4762
3335 1 1.42075 3.00411 9.49087
544 1 2.04883 3.77606 10.5175
4203 1 3.20128 4.41227 9.4215
5193 1 2.81594 5.37821 10.9502
445 1 1.72173 4.01292 9.36826
1913 1 1.31837 2.89439 11.2955
7404 1 4.08535 2.75861 9.8023
2603 1 4.28661 3.5446 10.7619
5839 1 5.77603 2.85831 9.79852
5779 1 5.73805 3.92336 9.9662
7356 1 5.3136 3.20367 10.7119
2342 1 5.30429 4.44257 10.9024
3948 1 5.49103 2.80037 11.8481
4440 1 4.32562 4.98093 11.2273
6889 1 4.70047 4.3154 11.9548
5087 1 6.42578 4.15371 9.26593
4667 1 6.87928 3.43901 11.5101
6210 1 3.80114 5.31669 9.39602
7309 1 6.32985 5.40523 11.576
965 1 0.593535 6.64176 12.0655
7318 1 1.44283 6.15638 9.57901
5743 1 0.455437 5.68285 9.86167
4679 1 1.97102 5.89373 10.445
5878 1 0.301886 5.65018 12.2323
4816 1 2.20207 8.13094 10.6306
4683 1 1.30024 6.69605 10.5494
6514 1 0.335578 7.1045 10.6703
5067 1 1.84293 8.09151 9.62384
7279 1 1.25244 7.7404 10.4521
3284 1 2.87884 6.88371 10.175
2481 1 2.12292 5.69628 11.72
4371 1 3.23368 7.58816 11.36
5505 1 0.284273 8.18759 10.9078
6918 1 3.46782 6.47907 9.33136
4020 1 6.05968 5.75285 9.50632
4766 1 5.65539 5.88643 10.8968
2501 1 4.95898 6.65277 11.9412
783 1 3.74508 5.79156 11.0791
3077 1 6.74578 7.03194 10.4181
7283 1 4.62663 8.23504 11.7901
3367 1 5.10649 5.86398 9.93242
198 1 4.39522 5.70971 11.9602
1939 1 6.89072 7.4794 9.43138
112 1 1.1979 8.3562 11.3964
5248 1 3.01352 8.46242 11.9736
2480 1 1.41064 9.57297 11.1424
716 1 1.23331 10.3392 11.8544
2815 1 0.145315 10.1528 11.69
279 1 2.08213 8.91921 12.1862
4166 1 2.88864 8.99147 10.9841
6317 1 0.689804 8.55165 9.51077
436 1 0.622315 10.3782 10.5937
3488 1 1.50367 10.478 9.61382
996 1 0.997077 9.446 10.0722
4967 1 6.44746 10.9063 9.35658
3482 1 3.59633 8.39183 10.3681
3221 1 3.98225 10.8929 11.2714
2404 1 3.48566 9.93351 11.2359
6564 1 4.39223 8.6295 9.6801
2725 1 5.45599 8.91383 10.5929
5528 1 5.30206 10.0945 11.5368
122 1 6.45687 8.94961 10.3301
5871 1 5.32347 8.83287 9.20881
2634 1 6.67096 9.53064 11.1914
3976 1 4.69097 10.9485 12.2372
1225 1 6.5226 10.6733 10.4837
1385 1 3.10295 13.5357 10.1321
3642 1 1.73654 11.0474 11.3898
315 1 2.60734 11.5113 11.0901
7692 1 1.83053 12.3204 11.032
4171 1 2.55489 12.2456 10.0815
1681 1 1.23765 12.6915 11.9224
3638 1 2.79731 12.7833 10.9413
655 1 0.452413 13.4775 10.1672
5559 1 2.84926 13.3676 11.8416
6098 1 0.778268 11.2501 9.89428
7329 1 0.814715 11.7842 10.8651
6345 1 6.39754 13.6563 10.8719
4209 1 5.0367 11.1789 9.52849
7420 1 4.15249 11.1702 10.2476
2948 1 5.00314 12.8144 9.87727
5164 1 5.74885 12.3565 10.5297
7032 1 4.55397 12.7798 11.4544
6762 1 5.24194 11.5319 11.5546
1205 1 6.84264 12.1687 9.25767
472 1 5.92467 12.4064 11.9677
5018 1 2.40106 2.37071 12.2581
5409 1 2.81808 1.34714 12.4014
5987 1 0.811912 2.53319 12.6573
2112 1 0.754413 2.62785 13.7279
2184 1 1.74659 2.50223 13.1772
400 1 0.892207 2.61762 14.8224
5243 1 1.10348 0.503832 13.5556
4832 1 2.26822 1.65472 14.6806
224 1 1.36005 0.165061 12.5898
3920 1 2.29533 0.434377 12.9764
5558 1 3.36412 1.42326 14.6729
5412 1 2.90856 1.2025 13.5239
3921 1 2.84808 2.53915 14.7984
7844 1 2.82753 0.634254 15.2523
3177 1 2.5391 0.13933 13.9414
930 1 6.58187 2.0686 14.8604
4152 1 4.28033 0.705227 14.0109
1473 1 4.37232 2.60136 14.9405
4413 1 3.46491 0.347469 13.4025
5253 1 4.74908 0.788854 12.3383
5128 1 5.56998 2.48164 13.628
6038 1 6.11118 1.98716 12.7959
724 1 4.94961 0.350363 13.2864
756 1 5.20592 0.478611 15.3067
941 1 6.57673 0.64841 12.6053
1660 1 2.24866 3.6499 12.5451
7170 1 0.865373 4.19088 12.5098
5762 1 2.38239 4.39824 13.2699
4595 1 1.58156 3.62617 14.3013
6410 1 1.51681 4.6506 13.8759
2492 1 0.0618788 3.44867 14.5565
61 1 3.43262 3.56808 13.825
3591 1 0.39306 4.56699 13.6199
4491 1 1.48659 5.08165 14.8523
2403 1 2.20676 4.25928 14.7454
4726 1 5.50242 4.45226 12.5374
6184 1 4.98659 3.42003 12.4724
3565 1 6.14977 3.02043 14.7851
2658 1 4.48839 4.41919 13.4295
3574 1 4.02456 3.10215 13.0464
2441 1 3.90688 5.27106 13.4705
6592 1 5.23425 3.25371 14.2894
3964 1 6.64764 3.67525 13.7067
7255 1 5.16404 4.67746 14.2212
4590 1 6.04921 3.89273 15.2397
2594 1 4.61181 5.38845 15.155
6983 1 3.86198 4.59274 15.0199
5832 1 4.81345 4.24747 15.0818
4219 1 5.65698 5.4282 15.2661
3101 1 6.85179 5.22841 13.5064
6920 1 0.596224 8.08523 12.8342
2050 1 0.0860389 6.98787 14.038
3440 1 2.89083 6.07909 12.9738
1647 1 0.665703 5.52139 13.2138
4452 1 1.35898 5.88818 12.4298
1519 1 3.39713 7.92569 13.4026
776 1 1.35997 6.20694 13.5311
2909 1 2.46041 7.80627 12.7805
6664 1 2.76652 6.66316 13.9706
4985 1 0.815199 7.01416 13.0864
1380 1 0.391618 7.82939 14.9511
5725 1 2.85796 5.95243 14.7597
180 1 0.976358 6.97522 15.1387
2989 1 1.81041 6.0883 14.5612
2298 1 1.40507 7.77944 13.4516
171 1 6.61704 5.6489 14.6153
4611 1 6.04004 8.15181 14.98
6237 1 5.15612 5.83818 12.7592
3182 1 3.91628 5.85895 14.3881
5866 1 5.28163 5.85403 13.7995
4218 1 4.46264 7.03289 14.8176
5759 1 5.3185 6.91616 13.5642
2039 1 5.42151 7.29024 12.5269
2988 1 6.09705 7.72813 13.7407
3450 1 4.66774 8.25887 12.906
2013 1 6.237 6.08697 13.4642
5192 1 1.01903 8.56902 14.2865
4706 1 1.38359 9.73539 12.8823
4135 1 2.13084 10.8657 13.7135
6375 1 3.0415 9.96408 12.9933
3736 1 0.870049 10.0157 13.7159
786 1 1.22897 10.9496 13.0093
1018 1 2.1005 8.65026 14.0272
788 1 0.481175 10.537 14.7632
5830 1 2.9467 9.7317 15.0661
3027 1 2.77058 8.6716 13.1186
6001 1 2.8118 10.9818 12.6905
1229 1 0.81747 9.54787 14.6882
1029 1 3.07952 10.9679 15.2272
959 1 3.68308 9.13468 14.6561
3839 1 5.5266 8.83581 13.5601
6563 1 4.21957 9.87692 13.9303
4447 1 4.65265 9.04585 14.2251
6951 1 5.16718 10.9138 13.9477
555 1 3.7771 10.3449 14.8494
2789 1 4.68154 10.7318 15.2501
1323 1 6.88651 9.542 13.4213
7385 1 0.0647623 12.2305 12.312
3654 1 0.722832 11.9043 15.2002
2220 1 0.675273 11.2475 13.8675
4017 1 1.14509 12.721 13.2513
2738 1 1.99672 11.6493 12.4517
3663 1 1.78314 11.248 14.6504
2313 1 3.23225 13.3391 13.796
167 1 0.985422 11.8639 12.5789
3018 1 1.87287 13.2253 14.2264
4677 1 0.303418 12.1245 13.4136
5642 1 2.79543 11.5961 14.2685
1185 1 2.16694 11.944 13.4409
5279 1 0.764458 12.9812 14.7243
819 1 3.51371 12.4979 14.8708
4566 1 5.57629 12.1551 13.8876
2968 1 5.26628 13.5533 12.8178
4756 1 5.36061 13.7216 14.6804
3185 1 3.75204 11.9695 13.3382
4237 1 5.04363 12.6954 14.623
2262 1 1.74217 0.34729 15.422
2920 1 2.87982 1.23944 17.1739
2592 1 0.519848 1.20294 16.8311
3135 1 0.344349 1.8576 15.5346
7875 1 1.51406 1.29978 15.4753
3549 1 0.914943 2.04944 17.3585
6919 1 2.61415 0.263029 18.2948
6057 1 1.69487 1.42414 17.567
534 1 1.11622 2.46965 15.9958
3744 1 1.78659 0.614673 16.4961
3530 1 3.1263 2.74953 17.4196
6736 1 0.361297 2.36182 18.1744
5625 1 6.11146 0.0694501 16.2503
1637 1 4.63952 0.72719 18.1977
1095 1 6.21504 2.63757 17.4754
5716 1 3.63707 0.970669 15.7902
7762 1 4.73787 0.741012 17.1278
1419 1 3.84791 1.92191 18.1858
449 1 5.14199 2.32226 16.9171
7597 1 6.752 2.65416 16.5738
1035 1 6.05671 1.87809 16.4257
6032 1 3.79126 0.180557 16.8581
1245 1 6.3397 1.61976 18.1145
6959 1 0.189341 3.2558 15.6417
2680 1 0.570126 2.818 16.783
327 1 3.26977 2.78851 16.4118
2526 1 1.34073 4.17194 16.951
5952 1 2.35536 4.13102 17.7022
2519 1 0.452912 3.96812 17.8787
7467 1 2.71649 5.16051 17.3082
4409 1 3.22203 4.80238 18.1205
2087 1 3.4323 3.83945 16.0551
126 1 1.37061 5.3745 15.8446
7090 1 1.73111 4.79246 18.3076
5913 1 4.61448 3.39483 15.7969
1192 1 5.56822 4.57106 17.8627
4888 1 3.60674 3.02493 15.3973
3415 1 4.30075 3.75709 17.8894
3922 1 6.53858 4.8461 17.5463
5102 1 4.37642 4.89528 17.3684
918 1 3.45598 4.4706 17.0806
705 1 5.61575 3.55367 17.4949
3039 1 4.15771 4.73485 16.3815
5292 1 5.74839 4.4316 16.8921
6080 1 5.38951 4.56074 15.8563
7014 1 6.49084 3.6061 16.9697
4381 1 4.50286 2.79498 18.3621
7618 1 0.149586 6.44684 15.3912
7049 1 2.72177 6.59281 15.7192
4490 1 1.56597 5.83436 17.1179
7292 1 2.12114 5.77217 18.1917
3235 1 2.9858 6.60383 18.225
5909 1 0.326975 7.07629 17.5911
2459 1 1.77158 6.6885 16.2703
4749 1 2.39086 7.96147 17.3679
6815 1 2.46017 8.01646 16.2866
2493 1 0.439001 7.78344 16.7746
5974 1 6.32665 6.94504 17.3006
5374 1 3.73913 5.65905 16.1314
6684 1 5.37164 6.82487 17.592
5693 1 6.72928 7.56802 16.6196
197 1 3.66403 6.68464 16.4756
3988 1 6.88418 7.63024 15.5131
5791 1 6.15606 5.57749 16.4012
6705 1 4.11631 7.36412 17.0995
2223 1 5.70195 8.06008 17.8526
6807 1 5.18502 7.15218 15.6503
2211 1 5.84039 7.91605 15.889
5792 1 5.29109 6.18509 15.9848
5290 1 4.98345 7.58976 16.5954
1718 1 0.585469 8.49175 17.9485
3447 1 0.494841 9.50623 15.7584
5165 1 2.92056 8.73161 16.8557
512 1 2.33017 9.16555 15.8255
2701 1 1.91731 10.9782 16.3939
7063 1 0.546542 9.62082 16.9604
5398 1 1.53438 8.32505 15.8781
4658 1 1.67265 9.7452 16.3051
1360 1 1.88746 10.4356 18.3485
2645 1 0.480722 10.6617 17.4403
5047 1 1.41016 8.7079 17.0976
5152 1 1.03929 9.75223 18.2369
2474 1 6.63051 8.76855 17.1902
4946 1 3.5262 10.1053 15.8805
4062 1 6.1058 10.8309 17.861
7531 1 3.91179 8.58118 17.2027
1242 1 3.92673 8.34413 18.2623
48 1 4.27549 9.38753 17.8253
4050 1 4.65267 9.97349 15.9446
5631 1 4.32909 9.85948 16.9131
898 1 5.24167 10.5626 17.3113
3529 1 0.412176 13.572 15.4498
7776 1 0.13352 13.3601 16.9561
3051 1 2.26733 12.771 16.0064
4928 1 2.52782 11.9538 16.9618
86 1 3.27732 12.4471 15.9612
6674 1 2.89668 12.9185 17.9461
1337 1 0.997908 11.0884 15.8863
4425 1 1.63895 11.835 15.8063
4045 1 0.990262 12.2141 16.753
5094 1 2.26136 13.6908 18.2677
160 1 0.00709069 12.6093 15.3944
3299 1 3.28021 12.0578 18.3706
4457 1 6.5705 12.1211 16.1488
3729 1 5.35319 12.7625 16.9881
7922 1 4.42027 11.8936 16.5348
162 1 6.09443 12.4293 15.3278
4916 1 6.18819 13.433 15.7668
4233 1 5.58161 11.8108 17.485
2587 1 4.50497 12.3413 17.4538
1865 1 6.59427 12.1696 18.1419
3196 1 4.59764 11.4588 18.1681
2878 1 5.03271 11.0262 16.1792
4119 1 5.33847 12.7844 15.9035
1471 1 6.35111 11.2769 15.403
6875 1 3.68135 11.2188 17.5496
1893 1 4.47772 12.7158 18.3553
5281 1 2.71668 0.80908 21.2407
1998 1 0.583344 0.471335 20.7094
6578 1 1.42256 0.914221 20.1494
7707 1 1.82222 1.92579 19.9549
1215 1 2.03845 2.41777 19.0873
4514 1 2.70055 1.26824 20.3042
7961 1 1.14854 2.64652 19.6314
7800 1 1.67624 0.133615 19.2795
25 1 2.89148 1.71202 18.9573
4986 1 1.27023 2.73219 21.0992
4181 1 0.0909749 1.57161 20.1068
3575 1 1.91174 1.53888 20.9019
2784 1 2.60783 0.515201 19.592
3152 1 0.42313 0.988173 19.2689
2997 1 5.07846 0.661081 20.509
7256 1 3.90851 1.22823 19.4943
2253 1 4.13295 2.36163 19.4562
4761 1 5.24098 1.03495 19.0194
5202 1 6.0883 1.70181 19.8382
727 1 4.58716 2.52741 21.0286
4316 1 5.78302 0.522613 21.2898
5912 1 4.03476 0.00768401 20.2487
7128 1 6.85901 1.23275 21.0723
3419 1 4.02129 0.0684515 18.8279
3803 1 0.0639977 3.60071 20.9049
2777 1 1.27994 5.09691 19.3772
574 1 1.04867 3.7647 19.5093
2498 1 1.77311 3.39997 18.7463
6515 1 2.01385 5.10665 20.1655
2922 1 1.44064 4.83497 21.3466
6725 1 2.51818 4.31923 20.6672
7229 1 2.17658 3.53264 19.6918
1261 1 1.47849 3.46869 20.4164
6002 1 3.41219 3.84345 20.5255
5796 1 2.60412 5.39628 19.0856
1458 1 5.36539 3.36612 18.7259
4228 1 4.2501 3.33937 20.0299
2067 1 6.11017 3.82518 19.2057
4478 1 3.60555 4.78644 20.1319
4779 1 4.49393 4.41466 19.7951
29 1 5.82207 3.67333 20.4435
6775 1 5.24511 4.481 20.5035
1103 1 5.84798 5.16494 18.6414
1578 1 4.88302 5.48612 20.2627
4908 1 4.81071 4.82166 18.8122
2910 1 6.20759 2.81875 19.0442
6634 1 6.6792 4.68721 19.1558
2373 1 1.83855 7.53321 18.6966
4947 1 0.169078 5.55965 20.453
5328 1 0.941592 6.62159 19.8257
1495 1 2.33163 6.20354 19.6287
1693 1 2.17111 8.22395 20.9002
4336 1 0.230024 7.85097 19.601
6379 1 0.485472 6.27489 21.1617
2903 1 2.90416 7.91688 19.03
5744 1 3.08657 6.53982 20.6526
179 1 0.153552 7.54536 18.5773
5923 1 1.17972 7.92466 21.0452
1133 1 0.551342 5.71189 18.68
2654 1 3.57319 7.31215 20.2148
1532 1 5.43645 5.67415 19.4778
4814 1 3.57704 8.24508 20.6904
6786 1 6.2568 8.19566 19.5077
7529 1 6.83621 5.99539 19.9599
7192 1 4.05436 6.32295 20.4225
7622 1 5.0112 6.64166 19.1237
5384 1 4.30847 8.05401 19.19
872 1 5.59096 7.37861 19.8493
124 1 3.90035 6.65572 19.3214
6927 1 3.62265 5.56681 19.3412
2836 1 3.50746 7.33715 21.2258
7033 1 4.44439 7.24317 18.4645
3085 1 5.86749 6.40564 18.7281
4800 1 6.76961 5.87305 18.9557
7833 1 6.79536 6.78979 19.3709
5660 1 2.1294 8.38284 19.5268
6154 1 1.06445 8.7794 20.1864
5734 1 1.72872 9.55766 18.9509
3329 1 1.9531 9.3323 19.9139
6976 1 3.19476 10.7874 21.3587
607 1 2.35826 10.5611 20.6786
1328 1 0.350288 9.32117 21.055
6266 1 2.12174 10.638 19.4027
4865 1 0.481234 10.8606 20.3163
6156 1 2.65196 9.9298 18.8656
1557 1 2.60645 9.86031 21.406
7788 1 0.293865 9.96697 18.9887
478 1 5.80663 10.1365 18.5864
4853 1 4.08957 9.23975 19.7838
4523 1 5.25993 9.18681 20.1705
2570 1 4.16689 9.30283 20.8825
3191 1 4.75474 10.553 19.5804
4786 1 3.77209 9.40414 18.7518
2358 1 6.45599 10.9489 21.4172
2567 1 4.93755 8.64557 18.4777
2827 1 6.4721 9.73508 21.1699
6573 1 4.48426 10.8546 21.4035
758 1 6.60494 9.00964 18.8314
7382 1 2.29731 12.0776 19.1661
5933 1 1.93253 13.0725 19.1316
4517 1 2.3689 12.7517 20.269
2248 1 2.0447 13.5028 21.3994
238 1 0.0996094 12.0224 20.169
3613 1 1.40425 12.1362 18.777
3179 1 2.89447 12.9154 19.0025
2345 1 1.90068 13.6876 20.2839
322 1 2.91527 13.6374 19.8126
2120 1 3.49752 11.5412 20.4668
5427 1 5.53111 11.1778 18.8457
6797 1 6.00301 11.7093 19.6043
4079 1 4.20225 11.4494 19.3658
1618 1 4.62858 11.3876 20.3621
187 1 5.49367 12.3175 20.936
5882 1 4.669 12.7722 20.1571
6653 1 5.71245 12.9986 19.9992
1857 1 3.59666 12.2945 19.7221
6974 1 4.98846 13.1332 19.2473
4911 1 6.7282 13.1883 19.9679
1859 1 2.1899 2.59238 21.752
385 1 0.761643 0.33188 24.2541
5273 1 0.926651 1.10199 21.8658
3031 1 1.37698 1.07138 23.6859
5616 1 3.09509 0.740228 23.0279
6821 1 1.02182 1.80878 22.9499
234 1 3.20372 2.07315 24.0432
6834 1 1.69937 2.34372 23.6056
775 1 0.0838792 1.36228 23.6639
3790 1 5.11551 0.874591 22.1139
251 1 6.46613 0.799438 22.017
5680 1 3.52849 1.64894 21.4423
867 1 5.28032 0.11401 23.2405
1523 1 4.15765 0.433733 24.238
3274 1 5.47146 2.25105 24.0616
6388 1 5.82348 1.46985 23.3989
2614 1 6.43221 1.84672 24.2032
3184 1 4.39036 1.60265 23.7551
291 1 6.25919 0.218908 23.0021
6813 1 6.49948 2.74311 23.6484
4826 1 3.02846 4.12605 21.5519
1894 1 0.278918 3.05582 21.8469
2671 1 0.127396 5.45579 24.4969
1685 1 2.54979 4.7613 22.2379
5449 1 2.29344 4.54708 23.2914
2057 1 0.893289 3.05057 24.4497
4671 1 1.85503 3.58777 21.5828
6474 1 1.55948 5.3598 24.3188
7228 1 0.95129 3.99853 23.979
2985 1 2.42236 3.09338 22.8202
1807 1 3.05322 3.23166 23.865
1272 1 0.179716 3.37222 23.7397
4174 1 1.9561 4.38521 24.4804
4035 1 4.00829 2.97345 22.1153
6324 1 6.35511 3.61575 22.0091
6008 1 4.59461 2.84799 23.9951
2892 1 4.89203 4.05492 23.3984
1880 1 5.25933 5.03609 22.4272
33 1 6.27579 4.35625 24.1051
2966 1 5.90924 3.86194 22.9974
3341 1 5.56733 4.41 21.5886
6363 1 3.47584 5.47857 23.1835
1300 1 6.1324 3.31696 24.3806
645 1 3.30987 6.02407 21.5659
816 1 2.72606 5.82087 22.385
6112 1 2.43636 6.67878 22.9965
6114 1 2.91493 6.06587 23.8941
5258 1 2.4598 7.52535 22.0435
1159 1 0.285982 5.55132 23.2438
3210 1 0.883433 7.55421 22.9792
3157 1 2.2605 7.65757 24.0411
1528 1 0.349148 7.79826 24.4639
615 1 5.02299 6.59941 21.5486
6299 1 4.47837 5.67121 22.751
3507 1 6.30361 5.94887 22.4445
370 1 5.40345 5.84685 23.7948
3567 1 5.9201 7.48296 23.7179
1423 1 6.09525 6.04016 21.4515
1816 1 6.21838 7.98502 21.9879
7442 1 4.76071 7.20237 23.8206
5724 1 4.89237 7.94964 22.6777
88 1 3.65602 8.15239 24.3232
3498 1 6.74951 6.75038 21.8232
4053 1 3.28806 8.35136 21.6903
4856 1 3.23174 10.1162 23.5036
5085 1 3.03779 9.7989 22.345
699 1 2.32862 9.02777 22.0551
7687 1 1.00503 8.91701 22.0285
7458 1 1.86642 10.9226 24.0487
7419 1 1.14353 9.72651 23.4452
397 1 2.28368 10.1729 23.1128
1977 1 0.94925 8.75556 24.368
3406 1 0.438991 10.149 24.1287
6192 1 0.114674 8.43837 21.8544
3130 1 4.8554 8.60404 21.8363
4362 1 5.86058 8.89496 21.7669
5370 1 3.96703 9.2278 22.2659
3573 1 5.86003 9.954 21.9312
5819 1 3.64057 8.67865 23.1759
6116 1 5.33466 8.39065 24.4535
3065 1 4.73597 9.66738 23.9332
2254 1 6.44453 9.27983 22.7368
7317 1 5.05312 8.93459 22.8741
490 1 4.45171 10.6967 23.8374
7439 1 3.66385 10.7192 22.5531
3728 1 5.9076 9.96567 23.2355
5503 1 5.87609 8.50294 23.4177
5483 1 4.96639 10.6257 22.3718
3421 1 5.58729 9.39061 24.443
4783 1 2.17447 13.4255 23.341
4504 1 2.69022 12.7636 23.963
5591 1 1.63811 11.5019 21.9942
6532 1 1.91378 11.1605 22.9827
5494 1 0.766392 13.0294 23.1015
1593 1 2.59189 12.0683 22.5637
1808 1 2.75288 11.059 22.2832
1156 1 1.76285 12.652 22.7488
6337 1 2.9921 13.0152 22.6873
1985 1 3.22695 12.0483 23.347
914 1 0.848912 13.1109 21.6845
7672 1 0.180633 11.1461 24.3177
1738 1 5.9869 11.726 24.3403
5799 1 4.14312 11.6206 22.0592
215 1 6.0983 13.5823 21.6828
1105 1 6.76507 13.5962 23.0526
7158 1 5.60707 12.0869 23.3371
7918 1 4.06136 12.7771 24.3875
5264 1 6.5578 11.7825 21.8823
1674 1 0.0341434 0.463796 25.84
183 1 3.41623 1.08578 24.5086
4630 1 1.92009 1.61952 27.0879
5742 1 2.51345 1.57925 24.659
3444 1 1.96212 0.137435 25.7319
4220 1 0.214228 2.37529 26.2492
2231 1 1.6563 1.53257 26.1211
4052 1 2.6359 1.56159 25.7757
6287 1 3.30098 0.849929 25.504
1208 1 2.53392 2.5517 26.6845
1878 1 0.814393 0.951023 25.4651
5738 1 3.33009 1.12013 26.5193
1359 1 0.524833 2.75368 27.5373
4471 1 4.95956 0.223217 25.6405
4763 1 6.50278 1.58763 25.557
5250 1 6.53638 1.6198 27.1643
3264 1 4.18362 0.151861 26.2571
6027 1 5.76182 0.642186 24.7192
2529 1 4.62419 1.05108 26.6551
726 1 3.97234 1.60776 27.3553
5904 1 4.75461 1.01963 25.0512
2406 1 5.71682 0.823287 26.7129
3635 1 5.5616 1.62215 26.0253
1885 1 3.6958 2.56644 26.8216
6232 1 6.73694 2.5662 25.9843
1555 1 3.48303 2.56464 25.8132
4393 1 4.72154 2.28848 24.7678
995 1 5.17113 2.57548 25.7949
2063 1 2.94489 4.03986 24.6238
6167 1 2.20396 3.27173 24.7098
2795 1 2.92539 5.39329 27.3541
7403 1 1.27204 3.55772 27.4351
5682 1 2.27159 3.41213 26.1317
711 1 1.44141 3.86975 25.8159
7859 1 1.40598 2.86925 25.7811
1468 1 0.591652 4.43759 26.1362
475 1 0.180364 4.45739 25.1363
1992 1 2.36995 4.73928 26.743
5031 1 3.33118 5.17514 26.1942
7710 1 0.134067 2.93587 25.1262
4412 1 4.9676 3.59973 27.3049
14 1 3.58859 4.0965 26.6632
2375 1 3.76846 3.96556 25.6175
36 1 5.35218 5.13321 26.9448
1120 1 4.35513 3.34888 26.5035
6720 1 6.02419 4.09798 27.0858
1588 1 6.39836 5.10139 25.2889
6360 1 1.14033 7.21299 24.8035
1819 1 0.601504 6.88409 25.6144
1128 1 2.92339 5.84922 24.9163
1832 1 0.764534 6.15928 24.8318
1596 1 0.656037 6.49494 26.5835
853 1 1.66114 6.1158 27.1343
6912 1 3.42683 6.79516 24.5122
69 1 1.72732 7.75763 25.595
3215 1 3.05724 7.36635 27.3146
7401 1 0.094756 8.22692 26.1204
4204 1 1.04701 7.55866 27.5394
4857 1 3.60281 6.4519 27.5338
7044 1 4.96432 8.06024 25.39
3586 1 5.55052 6.01341 26.2456
7509 1 3.61886 7.96008 25.7611
7480 1 5.44827 6.43619 25.1413
2866 1 5.5783 7.12462 25.9645
3034 1 3.88493 7.23975 26.4986
7121 1 4.53192 5.85987 26.2623
4123 1 4.29722 8.09498 27.1615
4327 1 5.60216 6.42581 27.2598
7974 1 1.28189 9.69782 27.0628
7532 1 3.03556 10.3493 25.0598
1956 1 0.879445 8.31366 25.2785
3143 1 0.526878 8.34023 27.088
4200 1 0.0519859 9.70991 25.0477
3934 1 0.0594723 9.24864 26.322
6224 1 1.74907 9.77448 24.8097
4266 1 0.142531 10.4951 25.8291
934 1 2.58936 8.43229 27.5327
214 1 3.12412 9.61659 27.1951
7386 1 1.37098 10.1859 25.8005
2285 1 3.11578 10.6552 26.8742
6518 1 1.6694 10.675 27.4405
4498 1 2.05562 10.9464 25.8496
6119 1 6.51783 10.5593 26.4389
6442 1 4.11158 9.13391 27.2023