ITEM: TIMESTEP
499000
ITEM: NUMBER OF ATOMS
8000
ITEM: BOX BOUNDS pp pp pp
0.0000000000000000e+00 2.7564674686161492e+01
0.0000000000000000e+00 2.7564674686161492e+01
0.0000000000000000e+00 2.7564674686161492e+01
ITEM: ATOMS id type x y z
2022 1 2.2953 1.87013 2.22144
1246 1 3.18553 1.31535 2.40385
77 1 2.03883 0.851313 2.36661
71 1 2.76681 2.06178 0.516829
6867 1 2.76833 1.48445 1.38234
31 1 1.97692 0.520724 1.37742
6851 1 1.65422 1.55335 1.45493
57 1 1.47445 2.51407 2.02177
117 1 1.65377 2.17945 0.591257
158 1 3.17952 2.25574 1.93346
956 1 0.666299 0.515042 1.20843
1997 1 1.32752 1.61056 2.63854
6059 1 0.983138 1.30512 0.637212
24 1 3.16797 1.12024 0.506996
727 1 0.476797 2.23097 2.44135
7 1 2.31612 2.45614 1.35889
4159 1 0.668722 1.32619 1.88368
6205 1 0.835575 2.21491 1.25865
962 1 2.07189 1.18636 0.58452
2217 1 1.40635 0.302743 0.496468
152 1 1.09449 0.606609 2.78545
4153 1 0.310782 0.254693 2.16733
215 1 2.83684 0.283159 2.76952
114 1 2.89176 2.25021 2.93516
320 1 3.05247 0.538177 1.68498
104 1 1.86934 2.43753 2.99969
101 1 0.295368 0.202274 0.22758
7245 1 0.264814 1.99579 0.364934
2957 1 4.01634 1.16914 1.68138
2878 1 3.66038 1.90176 1.03431
6908 1 4.61887 2.3178 0.855246
3283 1 4.74654 0.911043 0.202552
1040 1 3.80582 0.640876 2.99938
2207 1 5.63019 2.61126 2.63138
2021 1 4.07716 2.69708 1.63288
18 1 3.80984 2.65479 2.65806
905 1 4.91295 1.36244 1.15889
3432 1 5.58019 2.6478 0.563642
2168 1 4.12428 1.77118 0.112977
6125 1 3.22235 2.85819 1.01633
1097 1 0.821921 2.8634 0.257071
56 1 2.41181 2.91582 2.29108
6 1 1.48163 3.09141 1.12249
6073 1 2.44731 3.49797 1.37805
67 1 2.28922 3.00164 0.447259
113 1 2.54841 3.94815 2.29671
95 1 1.50701 3.67993 0.223141
43 1 1.63266 3.53545 2.01814
161 1 1.01393 3.07305 2.80825
6103 1 1.1773 4.10356 2.83157
6124 1 0.665504 3.1761 1.82453
187 1 2.57427 4.6103 1.37562
81 1 2.69471 5.00833 2.31219
7231 1 0.779145 4.18568 1.84449
4089 1 0.641765 3.68855 0.903734
78 1 1.73932 4.58331 2.07391
5092 1 1.63374 4.14098 1.12822
6434 1 0.204927 3.7413 2.61694
119 1 3.32945 3.29589 1.95626
172 1 3.08778 3.31021 2.99379
6150 1 2.76517 5.49955 0.75047
183 1 3.36158 3.86371 1.07752
6114 1 3.16954 4.43433 2.9839
6375 1 2.4837 3.98729 0.437892
6264 1 1.96723 3.45708 3.02855
44 1 3.37141 5.46029 3.04259
46 1 2.1341 4.5257 3.05867
19 1 3.26313 3.36405 0.124137
23 1 3.4367 4.39688 0.154969
121 1 3.44807 4.39847 1.99724
6979 1 3.56249 4.90997 1.08212
179 1 3.6451 5.43256 2.02197
218 1 3.94566 3.72743 2.66145
171 1 4.13077 4.77432 2.72139
939 1 4.99303 3.13258 1.32704
63 1 4.1577 3.23465 0.738426
2131 1 4.71545 3.10657 2.34526
135 1 4.31972 4.25233 0.768689
6230 1 4.23694 3.73067 1.67134
79 1 5.19483 4.14573 1.37032
35 1 4.90883 4.14938 2.41984
1000 1 5.64252 3.49469 2.04962
29 1 5.97354 3.49458 1.03516
123 1 6.12602 4.51104 1.09692
2458 1 6.60293 3.85233 1.78664
966 1 4.4238 4.77425 1.70923
194 1 5.27002 4.69594 0.492583
2926 1 5.83578 4.56014 2.08105
981 1 5.10435 3.66266 0.456212
992 1 5.3704 5.18563 1.4247
176 1 5.02899 5.20013 2.44711
126 1 4.46329 5.30151 0.804242
125 1 6.34795 3.89149 2.7891
245 1 6.48597 4.92661 2.84075
989 1 6.21847 5.06506 0.190556
6887 1 3.58219 5.43971 0.130377
170 1 6.75882 4.92043 1.84892
2053 1 6.05475 4.03231 0.1322
148 1 2.85981 6.06064 2.30491
918 1 6.30381 5.59143 1.14748
110 1 6.01029 5.57657 2.16467
265 1 5.42337 5.71222 0.511011
134 1 3.6809 5.97293 1.12495
2032 1 3.82587 6.4874 2.05202
181 1 4.30581 5.85053 2.77426
984 1 4.61556 6.32552 0.849627
1766 1 5.51517 6.20808 1.45327
2236 1 4.58962 5.79222 1.73997
2246 1 5.24776 6.27834 2.50609
2376 1 6.24457 6.46152 2.76697
3901 1 4.74539 6.85935 1.77336
371 1 4.45702 6.89904 2.79353
90 1 6.55115 6.43787 1.76476
232 1 3.50524 6.51523 3.03769
6766 1 0.46759 10.3696 1.05862
4166 1 0.302062 9.86696 0.058817
133 1 0.496366 10.9175 0.158347
4805 1 6.08634 10.9805 0.916761
6085 1 0.879486 12.2627 1.42262
76 1 1.11245 11.6824 0.503764
47 1 0.879103 12.722 0.435004
6040 1 0.210768 11.4648 1.00315
1103 1 0.487759 13.263 1.37332
735 1 1.69094 13.3912 0.532295
37 1 0.202212 11.9863 0.0823791
1008 1 0.644232 13.6905 0.147464
107 1 0.385494 1.339 3.06749
164 1 1.98833 0.0917964 4.33109
7238 1 1.06851 0.149797 3.77198
7147 1 0.186601 0.302362 3.19886
6060 1 2.20914 1.4894 3.16732
7345 1 0.376601 0.938979 4.00627
61 1 2.01412 0.48449 3.33516
1244 1 1.23351 0.781983 4.6547
6069 1 2.84185 1.85384 3.92102
6960 1 1.81395 2.04034 3.97026
7194 1 2.13972 0.703046 5.16836
153 1 2.14393 1.06538 4.18862
6210 1 2.8453 1.48713 4.8861
206 1 2.50158 2.41947 4.69651
7200 1 1.80053 1.66415 4.95058
1197 1 0.896345 1.74605 4.40132
308 1 1.42705 2.27365 5.74122
1188 1 0.909046 1.40727 5.42706
163 1 2.45415 2.06488 5.66803
130 1 0.530331 2.35778 5.17863
7732 1 2.98261 0.87854 3.58247
6058 1 0.931489 2.21616 3.40891
212 1 1.27779 1.20323 3.63181
2958 1 2.9624 0.45413 4.56507
364 1 2.88816 0.962441 5.83274
382 1 1.77676 1.31542 5.98055
1415 1 0.477721 0.0138055 4.60529
316 1 1.43084 2.65374 4.75128
2153 1 3.51837 1.86576 5.58965
168 1 3.51663 2.29572 4.6426
6315 1 3.51214 2.66748 3.70246
6014 1 3.76507 1.70807 3.18053
6113 1 3.72598 1.31469 4.20892
1249 1 3.6979 0.941906 5.1925
1143 1 4.35756 1.7662 4.94216
213 1 4.40897 2.14908 3.96049
69 1 5.04849 2.55745 4.70229
2253 1 5.02153 2.17573 5.7061
2113 1 3.77488 0.174808 3.93118
248 1 5.32375 2.58348 3.65271
207 1 4.37623 1.31671 5.89689
1288 1 4.17972 2.67998 5.34609
214 1 4.97571 0.941381 5.04747
325 1 4.84119 0.402488 5.95658
304 1 3.82809 0.340432 6.06638
1384 1 4.25577 0.0736609 5.17391
6152 1 0.559673 2.78506 4.19131
1198 1 2.48596 2.83274 3.71992
306 1 3.1448 2.84732 5.40121
6320 1 0.269434 4.23785 4.36685
951 1 1.46137 3.04154 3.78567
7293 1 0.806553 4.70959 3.61317
406 1 2.09959 3.00794 5.47208
6423 1 1.07043 3.24175 5.56451
6310 1 0.645365 4.2122 5.36022
6260 1 1.07137 3.61361 4.57188
477 1 1.22331 4.66901 4.61293
368 1 2.11546 3.43717 4.50619
6285 1 2.67717 3.92892 3.74667
118 1 2.79209 4.97908 3.77978
6160 1 2.2479 4.45904 4.54272
2117 1 3.13607 3.27817 4.45874
6163 1 1.77221 5.11331 3.84551
311 1 1.5991 4.04757 3.8172
357 1 2.90539 4.86377 5.28854
271 1 2.73277 3.80273 5.22
6254 1 1.70217 4.01024 5.30993
6235 1 1.88646 5.05034 5.36762
6374 1 0.817628 5.24382 5.37846
6215 1 0.657095 3.67257 3.59422
256 1 0.428021 5.28617 4.39684
6280 1 3.30002 4.29137 4.51334
2120 1 3.38436 4.23948 5.97442
185 1 2.38791 4.40915 6.03983
4412 1 0.174324 3.30669 4.98137
2541 1 2.53085 5.46245 6.08883
6218 1 1.29936 4.59897 6.11291
6158 1 0.10605 2.83028 3.23122
6220 1 3.4336 5.35599 4.51842
2667 1 5.37374 3.47656 3.07088
1938 1 5.577 4.52291 3.11035
2229 1 6.73936 4.32129 4.59848
959 1 5.71379 2.98257 5.45607
102 1 3.69057 3.76841 3.68576
4213 1 5.95941 2.9563 4.37854
280 1 3.78019 3.6571 5.21001
74 1 3.82006 4.82137 3.75215
269 1 3.92381 4.72792 5.24464
72 1 4.15804 3.08531 4.41185
2136 1 4.32433 4.13496 4.42954
112 1 4.41165 3.10907 3.37265
2077 1 4.62241 4.16061 3.40287
2211 1 4.7915 3.48278 5.13848
2471 1 5.10445 3.46903 4.13176
2306 1 4.39847 4.05659 5.93524
2293 1 4.95564 4.53264 5.17554
177 1 5.9895 3.89942 3.81169
2124 1 5.24281 4.54842 4.17091
2087 1 5.72197 3.88078 4.87075
263 1 5.43926 3.93877 5.8535
2919 1 6.3988 4.31526 5.55645
2071 1 5.9011 4.92897 4.8964
75 1 6.19863 4.92523 3.9142
3245 1 4.49595 5.19183 4.47249
165 1 4.79021 5.18438 3.47625
3462 1 4.56924 5.13406 5.98848
100 1 5.65271 4.97959 5.89543
307 1 6.59796 3.38365 5.0835
2284 1 3.54438 5.26975 6.03615
2111 1 4.86681 3.11039 6.0859
6130 1 2.41503 5.53094 4.606
6964 1 1.10492 6.82301 4.60781
4387 1 0.108164 8.20049 4.7481
6888 1 2.95001 6.02677 3.8421
6153 1 1.36873 5.73512 4.65906
217 1 2.04783 6.07739 5.42815
6214 1 0.987379 6.27808 5.49204
942 1 3.06336 5.9465 5.29991
6325 1 0.224237 7.15069 5.07133
2238 1 1.72364 7.01539 5.70281
7318 1 0.134795 7.91261 5.77767
276 1 0.25377 6.93442 6.10453
222 1 0.988438 7.80762 5.21046
2191 1 5.70092 5.57303 3.1602
2231 1 5.45452 5.59017 4.18653
317 1 5.14101 5.54545 5.20939
2289 1 5.94174 6.43602 3.76299
7269 1 4.95177 6.22936 3.52402
6393 1 4.02368 5.84718 3.74165
2233 1 4.6891 6.21485 4.53424
2170 1 4.12202 5.75656 5.29813
273 1 6.69154 5.78511 3.435
1356 1 0.0186477 8.93495 5.50071
1929 1 6.46501 13.7305 6.00855
1231 1 2.2541 0.353119 9.18705
362 1 2.70823 2.3399 9.11691
6483 1 0.441054 2.0579 6.21389
7394 1 1.03497 0.703854 6.30665
415 1 2.41389 2.54472 8.07189
1146 1 2.36649 0.978674 6.78742
6502 1 3.10212 1.15068 7.48523
1491 1 1.81791 1.61291 8.02768
411 1 3.13038 2.43223 6.38352
6410 1 1.5307 1.6346 6.93625
209 1 1.64422 0.632159 7.52621
505 1 2.37798 0.754781 8.22887
274 1 2.8798 1.66708 8.38584
303 1 2.60019 0.18761 7.40856
205 1 2.48066 1.96178 7.2088
301 1 1.62586 2.53526 7.44007
1283 1 1.52016 0.153335 8.49455
474 1 1.65057 2.33933 8.8227
7486 1 2.14187 1.42291 9.07556
1296 1 3.37234 0.386175 8.13585
5633 1 2.08278 2.62591 6.46599
1196 1 1.81233 0.030144 6.70543
1340 1 2.80311 0.101264 6.42434
314 1 3.42818 2.56028 8.39819
5875 1 0.152692 0.228699 6.19282
3207 1 4.02607 1.63282 7.61175
252 1 3.55265 1.40177 6.4971
2273 1 5.46539 2.57251 9.08776
1247 1 3.61413 0.239569 7.11203
203 1 4.42123 0.873099 6.82985
313 1 4.97447 1.63414 8.9347
359 1 3.89591 1.63727 8.62455
4461 1 4.35491 0.488805 7.82082
1497 1 4.13569 0.619597 8.85813
310 1 4.16824 2.29764 6.33321
554 1 4.48917 2.5329 8.73108
416 1 0.284524 4.80621 6.19441
524 1 3.22654 3.27439 9.1461
7300 1 0.436972 4.40574 7.62009
6477 1 0.610244 4.09518 8.90853
523 1 1.04499 2.84537 6.55192
272 1 0.65131 3.79024 6.35013
6467 1 0.717327 5.03409 8.48289
594 1 1.32808 4.26067 8.18766
1262 1 2.32173 4.23995 8.46649
613 1 2.22246 3.25296 8.85667
356 1 2.71994 3.40592 6.2056
253 1 2.74857 3.03088 7.18758
312 1 1.95063 4.98543 6.8327
6287 1 0.89477 5.12004 6.93057
468 1 1.71975 3.60341 6.30096
2176 1 2.36224 4.01936 7.03196
216 1 3.00784 4.84043 6.8152
423 1 2.96967 3.4632 8.12367
4439 1 3.08122 4.43038 7.75316
443 1 2.45523 5.24233 8.02376
1396 1 1.95975 3.50079 7.83237
6533 1 1.34273 4.21602 7.08463
516 1 1.7263 5.03742 8.79257
484 1 1.44568 5.23332 7.7814
575 1 2.73994 5.01703 9.05723
223 1 3.34029 4.23399 8.73132
5336 1 1.19631 3.26242 8.57167
570 1 3.38405 3.81802 6.94158
4370 1 1.60485 4.07852 9.18337
115 1 3.76607 3.26182 6.18429
377 1 3.47977 5.26186 8.26058
3541 1 4.75455 3.01308 7.83501
2352 1 4.45342 3.67095 6.93891
160 1 3.7549 3.0327 7.49896
2181 1 4.1015 4.40948 8.01766
2216 1 5.08788 4.4746 6.63938
2161 1 4.05699 4.63365 6.73541
3197 1 3.9974 3.44163 8.44132
142 1 5.0454 3.44421 8.74214
2271 1 4.5014 5.21079 8.52669
2311 1 4.38941 4.25448 8.99643
335 1 4.2346 5.34989 7.5417
7354 1 5.12951 4.35907 8.24365
422 1 1.42388 5.64013 6.1618
372 1 1.65247 6.7137 9.13963
381 1 1.02722 7.63941 6.23372
421 1 0.418169 5.89333 6.33624
292 1 0.174319 7.39353 7.86132
6228 1 0.409351 6.53654 8.40954
592 1 3.31489 5.97931 9.04136
2588 1 2.7772 7.70796 9.01363
6540 1 0.578361 5.79663 7.62687
616 1 2.27823 5.94871 8.80788
417 1 1.32615 6.9552 8.13491
6323 1 0.309481 6.6861 7.11315
428 1 2.59681 5.7918 7.11511
6377 1 2.18437 6.39461 6.42171
6324 1 1.96508 6.18691 7.83937
6233 1 1.1687 6.59155 6.50589
6522 1 1.08618 7.33392 7.2312
527 1 2.58107 6.85722 7.3665
334 1 2.01544 7.38404 6.65125
512 1 3.00735 7.68677 7.97638
378 1 1.98728 7.69058 7.71106
1155 1 3.00334 6.16256 8.02498
491 1 2.3723 6.96768 8.35546
396 1 1.75801 7.70307 8.75784
473 1 1.25378 5.95012 8.54373
347 1 1.03391 7.94303 8.10101
4068 1 3.26045 6.22701 6.39719
1301 1 0.156561 7.70644 6.82298
6520 1 0.809975 7.35315 8.98757
277 1 3.3759 6.91174 8.65372
6435 1 3.60816 6.91202 7.57205
2476 1 5.02728 6.11098 8.48398
286 1 4.01392 6.14454 8.26389
424 1 4.04088 7.61115 8.18996
290 1 4.42353 6.8925 8.82453
1869 1 4.64296 6.81493 7.80291
289 1 5.08699 7.57522 8.42206
225 1 5.45302 6.85729 9.08642
178 1 2.64491 8.37206 7.31087
384 1 2.38632 8.46037 8.31138
336 1 1.42921 8.74005 8.67987
3161 1 1.6535 8.67578 7.61817
348 1 2.84163 10.1179 7.72294
438 1 2.11257 9.44504 8.19452
1360 1 3.068 9.13695 7.89636
393 1 2.56793 10.2342 8.74775
585 1 2.85103 9.21896 8.92506
321 1 2.34239 9.38705 7.16864
492 1 3.1997 10.9918 8.26468
234 1 3.33477 9.08741 6.86854
388 1 3.44038 8.42868 8.5732
6383 1 0.00146306 8.7016 6.53255
65 1 3.91818 9.22123 9.12785
1313 1 3.57538 10.8236 7.24104
6169 1 4.38936 8.99264 7.07406
182 1 3.51081 9.98652 8.47243
7551 1 3.80364 9.79552 7.43633
2496 1 3.67873 8.35407 7.53551
538 1 4.15105 9.14825 8.1351
6599 1 4.53936 10.108 8.21676
6289 1 5.15565 10.5497 8.89761
2292 1 6.29207 10.3193 8.5994
233 1 4.4752 8.38172 8.77128
2242 1 5.46801 10.5429 7.93547
337 1 4.59036 10.9631 7.52119
7308 1 2.93257 13.5022 8.08497
1402 1 3.27865 11.7972 7.60905
1320 1 2.8407 12.6764 8.74562
5277 1 2.52879 11.7685 8.34299
6098 1 2.58002 12.5946 7.6892
1418 1 3.0903 13.6094 9.12777
1312 1 5.15672 11.4656 8.23568
1325 1 6.57414 13.4925 8.3777
3311 1 4.60247 12.8898 8.28993
6178 1 5.55716 11.3001 7.24365
294 1 6.8619 11.7663 8.68546
444 1 6.53738 12.7206 9.03469
6198 1 3.5888 12.7383 7.94175
2241 1 6.37722 11.2159 7.94494
3316 1 4.25955 11.0668 8.52254
3306 1 3.84484 12.8373 9.0358
338 1 6.41298 12.8901 6.64588
1252 1 5.60449 13.063 8.60151
1353 1 6.39637 12.0418 7.30636
2327 1 5.96994 11.2709 8.92117
349 1 3.55072 11.8887 8.65233
249 1 5.98402 12.1502 8.29432
1421 1 6.02851 12.9631 7.61806
346 1 4.56981 12.0699 8.9252
1259 1 3.87851 13.6853 8.39104
1265 1 4.28363 11.9312 7.8908
6245 1 4.16204 12.0773 6.2106
59 1 1.92761 2.17374 9.78784
526 1 2.1751 1.98801 10.7528
1398 1 2.1029 0.161696 10.1767
1488 1 2.39307 1.16348 10.0867
1293 1 2.7121 0.444173 11.449
7511 1 3.16771 1.92512 11.0897
418 1 2.94145 2.12614 10.0938
1546 1 1.77059 0.566577 11.9256
358 1 3.16009 1.44025 9.3635
6468 1 1.8836 0.87478 10.9133
712 1 1.80969 1.6207 11.7001
1545 1 0.988659 0.437308 11.2023
562 1 3.4143 1.20103 10.3384
2523 1 1.96562 2.70453 11.5839
1634 1 0.822025 0.142867 12.2062
401 1 2.5644 1.1864 12.2043
3577 1 3.53148 0.073383 11.9687
355 1 3.46713 1.08959 11.672
1294 1 3.64063 0.346803 10.9157
2455 1 6.1442 0.713272 12.1134
404 1 5.66184 1.84474 9.75411
434 1 4.60661 2.32235 11.2478
305 1 4.46083 1.29087 11.3837
413 1 3.92912 2.10307 10.4178
3493 1 4.88395 1.60567 10.4795
429 1 5.96697 1.51438 11.4503
3498 1 5.38045 0.67104 11.2747
522 1 3.69918 2.33648 9.38042
458 1 4.71194 2.32446 9.74376
2359 1 6.49478 2.38189 11.5543
455 1 4.19802 1.41716 9.61668
3294 1 6.44842 0.60078 11.1333
2411 1 5.8305 1.101 10.4678
1548 1 4.62616 0.590896 10.5869
3392 1 6.33578 2.02263 10.5494
5430 1 5.09435 0.938593 9.71077
408 1 5.39467 2.5297 10.5442
3397 1 5.19323 1.18574 12.1593
2557 1 6.63643 1.60474 12.2508
1094 1 6.87203 1.13541 10.2946
1332 1 4.47542 0.0240648 11.4837
3542 1 5.21249 0.145476 12.2496
2698 1 2.86305 3.1874 11.8396
6355 1 0.714052 2.93542 10.2994
315 1 1.74172 2.8966 10.6001
525 1 2.73489 2.85175 10.8571
672 1 0.830859 3.86007 9.90689
6575 1 1.46585 3.09666 9.56938
2466 1 2.45734 3.08522 9.84521
565 1 1.84158 3.84884 10.218
480 1 1.98009 4.83783 9.807
490 1 2.88431 3.86199 10.4435
731 1 1.25908 4.65802 10.5273
588 1 2.29727 4.65205 10.8016
478 1 2.14925 3.66412 11.1785
466 1 2.60714 4.04477 9.46465
548 1 3.02758 4.84477 10.0095
2431 1 2.68247 4.38337 11.7147
909 1 3.21444 5.28087 11.706
6515 1 0.975588 4.84834 9.51557
533 1 3.43468 4.58697 10.9549
899 1 1.1032 3.69783 10.9578
518 1 2.15184 5.36121 11.5831
238 1 1.21436 4.92136 11.5548
7543 1 0.460805 3.03533 9.27171
279 1 6.13981 2.79951 9.87891
230 1 3.78103 5.03231 9.2686
2676 1 3.47979 3.05006 10.1312
2484 1 3.64452 3.83884 11.646
688 1 3.69241 2.87732 11.1829
528 1 3.64324 4.07702 9.71518
479 1 5.50333 2.79762 11.5899
453 1 4.4642 3.08439 10.5132
2366 1 4.58995 3.33223 11.5908
369 1 5.34157 3.53289 10.8684
2287 1 5.08307 4.31386 10.2201
324 1 5.0387 4.25795 11.677
2347 1 4.35638 4.07015 10.9172
690 1 4.83671 5.03706 10.9512
319 1 4.1344 4.81431 10.2465
309 1 6.03117 3.81396 10.1477
295 1 5.76721 4.53182 10.9846
365 1 6.00376 3.81266 11.6439
385 1 4.12359 4.78568 11.7127
2463 1 5.19874 3.30106 9.8538
2371 1 4.24114 3.24634 9.43896
2363 1 6.26672 3.07743 10.85
454 1 5.95317 4.78556 12.02
2201 1 4.83639 5.01029 9.51553
2317 1 6.56244 4.75022 10.1244
2202 1 6.68633 5.04565 11.1985
3347 1 6.73415 4.00123 10.9043
2276 1 5.5438 5.25741 10.2675
430 1 5.00471 5.27613 11.9863
2362 1 6.8672 4.32818 11.9304
6425 1 1.41809 6.94801 10.9476
6641 1 1.28243 5.99916 11.3335
740 1 2.8296 5.5449 10.7771
6440 1 1.81769 5.55072 10.56
4915 1 1.03091 6.20045 10.3593
483 1 1.15317 7.14646 9.96318
567 1 1.55828 5.75284 9.54074
572 1 2.98875 6.54951 10.3994
587 1 2.56848 5.77828 9.80843
493 1 2.67239 6.7153 9.39304
427 1 1.9835 6.56396 10.1463
268 1 2.06677 7.56909 9.73472
2481 1 3.12229 7.51822 9.98912
6535 1 2.40168 7.32887 10.7324
3371 1 2.26316 6.34027 11.1593
532 1 3.32983 6.28828 11.3619
2835 1 1.52105 7.9269 10.5658
7499 1 0.719638 6.3419 9.3806
6402 1 1.18426 8.16251 9.55874
140 1 3.43028 7.32008 10.9842
360 1 5.7365 5.5307 11.2433
2578 1 3.92842 5.52739 10.9719
530 1 3.59686 5.74531 10.0283
344 1 3.68425 6.74011 9.63057
3264 1 5.64466 6.56381 11.5306
1651 1 4.85907 7.04318 10.8608
4301 1 4.74569 6.71246 9.85165
2167 1 4.64486 5.7598 10.2286
366 1 4.14681 7.51738 10.2217
2221 1 4.01748 6.52829 10.5998
623 1 4.80257 6.01139 11.2406
435 1 4.84899 7.65984 9.44439
250 1 5.54698 6.25203 10.5474
284 1 4.09538 5.75993 12.0007
1307 1 5.34182 5.89867 9.44768
5358 1 4.22209 6.73965 11.6868
1403 1 3.81851 7.71068 9.24638
380 1 4.3014 5.95511 9.24063
489 1 2.48128 8.32502 10.3319
6343 1 2.65088 9.31514 9.96204
329 1 2.18138 8.54167 9.36155
350 1 3.23406 8.50233 9.60454
1417 1 3.27257 9.98207 9.50737
323 1 1.67346 8.96171 10.1663
580 1 1.89828 9.54003 9.25487
339 1 3.60539 8.29589 10.5998
433 1 3.68393 9.26056 10.1791
499 1 4.29986 8.51498 9.82729
1253 1 5.92793 10.4185 9.58414
379 1 5.5149 10.5615 10.5785
2319 1 6.41501 11.0205 10.3369
189 1 3.51702 10.9811 9.26837
2497 1 6.84985 10.9004 9.34516
2331 1 4.23912 10.2275 9.24003
3301 1 3.04636 12.7546 9.76225
1359 1 3.03065 11.8929 10.3806
514 1 2.76667 11.7749 9.37657
6458 1 2.24272 13.5155 9.77341
4543 1 2.4536 13.5829 10.829
7509 1 3.19871 12.8154 10.8224
2391 1 3.28501 13.6807 10.1857
1310 1 4.07437 13.7753 9.43836
535 1 6.60056 11.0966 11.3824
278 1 3.78515 11.1134 10.2608
2506 1 3.48658 12.9202 11.8333
1369 1 4.24307 12.1562 11.7309
950 1 4.98618 11.385 11.6782
1601 1 3.97477 12.0572 10.6895
1315 1 4.51321 11.2228 9.54212
389 1 4.75659 11.3438 10.5994
1361 1 3.78587 11.9599 9.65199
293 1 5.53875 11.3755 9.89244
1410 1 4.85417 13.0113 9.31121
547 1 4.78218 12.1851 9.96448
2494 1 5.80119 12.3679 10.3201
1604 1 5.8513 13.2099 9.66142
6848 1 5.02464 13.0885 10.3797
1274 1 4.03934 12.9411 10.0747
4536 1 6.07898 13.3156 10.6897
299 1 5.716 11.5415 10.9544
2528 1 4.98061 12.2423 11.0029
4596 1 5.99723 12.4959 11.3341
1657 1 4.23406 12.9936 11.117
1210 1 6.45619 11.8379 9.70357
2597 1 5.26818 13.2128 11.3818
2584 1 6.74503 12.795 10.0455
4296 1 6.66807 11.9511 10.7267
2786 1 5.95786 11.6323 11.9974
376 1 5.20728 12.3866 12.0207
495 1 6.80933 13.6253 9.43866
3461 1 5.54891 12.2178 9.28388
5954 1 4.47971 13.1516 12.1404
3621 1 3.54964 13.7518 11.1959
3057 1 6.84818 12.1022 11.7221
748 1 6.03496 13.7218 11.8675
595 1 0.0414277 2.36232 13.4798
4687 1 1.16721 2.14765 12.3275
6482 1 2.19577 2.13838 12.5201
506 1 2.56941 0.170932 12.4601
353 1 1.67278 1.27452 12.7029
1344 1 1.62065 0.272782 12.9013
361 1 0.623141 0.493234 13.9657
6665 1 1.50368 0.969042 13.6901
2551 1 2.32165 0.566472 14.2166
6725 1 1.36656 0.673193 14.6762
656 1 1.49199 2.3889 14.177
564 1 0.841532 1.4972 14.3044
462 1 1.0528 1.85101 13.342
668 1 1.94867 1.49151 14.5098
7700 1 0.261115 1.81662 15.1778
768 1 2.08225 1.81677 13.5061
561 1 2.46537 0.873808 13.225
1648 1 2.87741 1.57287 15.0341
1444 1 0.73584 0.848984 12.9661
661 1 2.93442 1.36351 14.0251
6453 1 0.506793 2.47745 14.4122
3546 1 3.22877 0.618569 14.7759
2456 1 3.24129 0.41048 13.7491
3342 1 3.01976 1.72528 13.0531
6790 1 2.56424 2.30867 14.3219
3449 1 3.37136 0.767932 12.739
2571 1 2.65909 2.70197 13.3211
1794 1 2.21852 0.772151 15.2661
6660 1 0.0832356 0.860692 14.7898
529 1 1.6092 2.69409 13.1653
7790 1 1.23961 1.5204 15.2575
625 1 4.76492 2.54344 12.313
2468 1 5.72488 2.07869 12.2733
520 1 3.46012 2.42793 14.8881
550 1 3.53226 2.21067 13.8384
557 1 6.81223 0.784784 12.9196
407 1 4.28976 0.700674 12.2524
470 1 6.53344 2.49936 14.0788
2360 1 6.54068 1.40892 13.769
691 1 3.87537 1.24478 13.5304
2559 1 6.38486 2.198 13.1076
7630 1 5.07704 0.644594 14.7667
3547 1 5.92296 0.255778 13.0099
2512 1 5.15683 2.22613 14.7225
1500 1 5.8866 1.31794 12.9662
3598 1 4.17947 0.325714 13.2144
3648 1 4.1933 0.544233 14.2534
2457 1 5.63646 0.881115 13.8699
752 1 5.63971 1.92791 13.7901
3633 1 4.88756 1.14443 13.154
3543 1 6.32333 0.912971 14.6757
3699 1 6.11838 1.94594 14.8831
3431 1 6.57174 0.338556 13.828
660 1 4.76594 1.44388 14.1126
2422 1 3.83154 1.45752 14.5594
2715 1 4.69611 2.43699 13.819
3642 1 4.13235 0.689429 15.3023
2560 1 5.44577 2.66158 13.0592
559 1 0.174373 3.5083 14.4652
469 1 0.70708 3.18847 13.6051
1492 1 1.1974 3.30732 14.5994
7369 1 0.829748 4.28047 14.7072
5400 1 3.39861 4.55389 12.4598
2510 1 6.8244 5.27839 12.2868
2377 1 3.8323 3.03855 12.2701
405 1 6.16751 3.00716 12.3489
615 1 5.28471 3.49898 12.3468
370 1 4.37301 3.97589 12.4353
718 1 5.35992 3.71303 13.3732
409 1 6.32219 3.21809 13.3701
574 1 6.22994 4.21311 13.7226
515 1 6.12968 3.99698 12.6941
157 1 6.11856 5.06748 13.0063
617 1 5.56804 2.95196 14.0989
604 1 5.21612 4.50206 12.6689
2601 1 6.67552 3.49366 14.392
6405 1 6.52551 4.74463 14.6079
560 1 4.27459 5.0072 12.746
2762 1 5.99391 3.04888 15.1357
2561 1 4.65471 3.16651 14.6351
412 1 4.01207 4.22162 14.731
7330 1 4.9976 6.24328 12.3255
5454 1 5.94629 5.84669 12.2567
2417 1 6.86967 10.4299 14.3003
3845 1 6.52932 12.9363 15.2902
1707 1 6.77048 13.2921 14.3362
391 1 6.3864 11.3281 14.5434
2626 1 5.85186 12.273 14.8222
700 1 5.21934 12.9719 12.9075
1505 1 6.206 12.9154 12.5656
745 1 5.77432 13.3023 14.6299
3502 1 4.9587 13.1435 13.9173
3758 1 6.01353 13.2028 13.5772
2582 1 4.77 13.2696 14.9175
4720 1 4.24367 12.9941 13.1981
2540 1 3.98279 13.0242 14.2539
3227 1 6.86734 11.2751 12.3623
220 1 6.85766 12.2572 14.5079
3881 1 0.0285259 1.38165 17.6797
510 1 2.40633 2.01856 18.2727
6625 1 0.151953 2.16965 16.9989
1749 1 2.54133 2.53458 15.3805
1750 1 2.25296 0.265179 16.2191
5779 1 1.38137 0.213245 15.5962
704 1 2.5174 0.163356 17.5644
6808 1 0.758991 0.407658 16.5884
860 1 1.49175 1.07181 16.1702
953 1 1.63827 0.426352 18.1177
5688 1 2.37006 1.59041 15.9157
3837 1 2.19987 1.1686 17.7263
628 1 0.746602 1.84992 16.1314
6360 1 1.95503 1.72113 16.8801
6760 1 2.85255 1.90111 17.3409
6465 1 0.951783 1.35321 17.0244
579 1 1.45591 1.87786 17.8114
601 1 0.517148 0.914276 15.7231
605 1 2.6826 0.980873 16.8211
754 1 3.13569 1.32742 18.1693
3786 1 1.65234 0.601951 17.0778
618 1 1.70473 2.36446 16.0496
553 1 3.11474 0.854514 15.833
602 1 1.17656 2.46463 16.9345
563 1 2.63958 2.44881 16.4866
808 1 3.32096 1.71721 16.4343
502 1 2.08957 2.62244 17.445
703 1 0.994391 2.57588 15.3328
1799 1 0.811884 1.0874 18.2562
729 1 3.08489 2.73247 17.905
531 1 0.609484 2.1094 18.3618
859 1 4.83493 1.48379 15.3341
1745 1 3.46162 0.338637 17.951
667 1 3.50177 2.63254 15.9223
3640 1 5.90603 1.66784 18.2772
1693 1 5.31955 2.20588 16.9571
2752 1 4.4224 2.46787 15.398
3638 1 6.77691 1.32042 15.5919
2657 1 5.74732 1.02538 15.5683
1940 1 5.86044 0.548333 16.5317
1747 1 3.80516 1.61552 15.5653
1795 1 4.83921 0.233104 16.4781
725 1 4.26875 1.82333 16.8845
2802 1 4.88996 1.78481 17.8243
504 1 3.8718 2.03729 17.8108
1789 1 4.08134 0.961225 16.3309
2602 1 3.60447 1.14233 17.2469
3747 1 4.65492 0.879958 17.2285
2518 1 5.08556 1.27172 16.3545
1649 1 4.1576 1.06192 18.135
2760 1 6.08518 1.64354 16.3593
3637 1 6.60308 2.3876 15.6892
1889 1 5.2304 0.829125 18.1689
1599 1 5.49418 2.28018 15.7046
3782 1 3.94019 0.0938176 17.027
3821 1 5.65925 1.22998 17.2955
3741 1 4.48824 0.0668562 17.9705
577 1 3.56131 2.58505 16.9534
773 1 4.46407 2.75524 16.3597
655 1 4.54445 2.7252 17.4133
1598 1 3.71741 0.00101716 15.9821
627 1 0.142064 4.45172 15.4748
600 1 0.630251 3.56746 15.4266
6712 1 1.17408 4.37505 17.7406
2831 1 2.08838 4.52404 18.1756
5811 1 1.72974 3.23029 15.515
472 1 1.82826 3.21316 16.5946
578 1 0.449217 2.86699 16.2069
457 1 2.77361 3.35137 17.1034
6534 1 0.918837 3.52074 17.1654
777 1 0.493196 3.68393 18.1323
624 1 1.20558 2.8986 17.9623
662 1 2.85924 3.77072 18.0214
2171 1 0.54382 4.09505 16.3423
6620 1 1.90182 3.6494 17.6095
2658 1 2.70129 3.36792 16.014
6680 1 0.225055 4.3204 17.3696
552 1 4.07752 2.92103 18.3532
4607 1 6.81361 3.46953 16.787
2724 1 3.54154 4.50255 17.7286
2017 1 6.85428 3.42915 15.7151
7705 1 5.97564 3.09997 16.2032
1643 1 5.92906 3.96457 15.6418
155 1 5.10405 3.26799 15.6234
2656 1 4.00041 3.39761 15.4245
695 1 3.65033 3.49202 16.5048
775 1 3.74952 3.4734 17.5575
6650 1 1.91016 13.7228 17.5691
2721 1 2.87898 13.4173 17.2747
3868 1 3.11785 12.4227 17.4456
644 1 2.67206 13.4191 18.3215
3248 1 5.66299 13.052 17.4185
1501 1 6.79303 13.4467 16.1781
698 1 3.62496 13.1774 17.9667
2381 1 4.63788 13.5408 17.5776
589 1 3.8457 13.191 16.9654
5270 1 6.19432 12.4597 16.2643
7505 1 5.76956 13.4582 16.4596
2646 1 5.46373 12.8856 15.5671
2491 1 6.5954 11.8577 15.4246
612 1 0.962123 1.529 19.198
1544 1 0.50864 1.64077 20.1423
852 1 1.88523 1.68069 19.6464
813 1 1.28304 0.928739 20.0319
809 1 1.45228 1.81532 20.6154
1837 1 2.3908 2.00493 21.0369
851 1 2.2116 1.08556 20.4858
7045 1 0.822387 1.02615 20.983
7942 1 1.21818 0.466037 19.0481
503 1 0.172753 2.26271 19.279
1694 1 2.14326 0.677219 19.4711
762 1 2.76292 1.44294 19.0941
868 1 1.54151 2.29138 18.7993
2652 1 2.52658 0.514104 21.3144
1845 1 2.82691 1.83175 20.0605
1893 1 3.05267 0.834699 19.9334
5040 1 3.17479 1.26192 20.9174
705 1 1.8238 1.27879 18.6794
3987 1 1.60771 0.317854 20.8412
1848 1 1.09438 2.41571 19.7508
711 1 0.283743 0.584178 20.1901
1843 1 2.55936 0.541256 18.5342
804 1 2.52451 2.48194 19.2664
1998 1 0.67447 2.56743 20.6917
1741 1 2.03451 2.56659 20.1802
2751 1 3.40407 2.19412 18.7412
2708 1 3.42355 0.231547 20.7931
2807 1 2.49618 0.0557496 20.332
2937 1 3.34235 2.14798 21.4347
765 1 1.59689 2.69679 21.1517
907 1 0.0655326 1.78635 21.0641
509 1 3.47692 2.62857 19.7074
1829 1 3.53062 0.715048 18.9754
853 1 3.86283 0.180599 19.7935
658 1 3.68779 1.60097 19.5513
755 1 3.74812 2.03382 20.4998
830 1 3.99925 1.02281 20.3872
2853 1 4.35722 2.3424 19.2188
1891 1 4.39686 0.459927 21.1862
1644 1 4.57921 0.419163 18.9566
7918 1 4.78041 1.43692 18.8932
3691 1 5.16405 1.26337 21.1493
2804 1 4.13345 1.47929 21.3257
6704 1 3.01376 2.76106 20.6381
726 1 2.39637 3.9162 19.0187
558 1 0.820252 3.0117 18.9582
1793 1 1.72894 3.17956 19.3812
774 1 0.340795 3.14156 19.8826
753 1 1.29345 3.29909 20.3148
819 1 0.531954 4.03821 20.4534
674 1 1.93182 4.06785 19.9555
816 1 1.48129 4.2438 20.8777
603 1 2.15168 4.975 20.5121
680 1 0.972044 3.90057 19.5049
2851 1 2.24207 3.45989 20.7548
776 1 1.62646 4.64616 19.1363
883 1 2.56115 4.81983 19.5474
706 1 2.7016 3.33189 19.8014
663 1 2.87685 4.22361 20.3858
6828 1 1.14414 4.79075 20.0561
5521 1 0.214061 4.61773 19.6044
764 1 3.13754 3.2073 18.8618
1846 1 3.2306 3.64817 21.2045
654 1 0.686966 4.53722 18.6724
767 1 1.4458 3.77297 18.5683
2621 1 3.04187 4.66457 18.6078
6633 1 0.298007 5.02668 20.5924
720 1 3.36659 4.12516 19.4249
2928 1 0.869398 3.41304 21.2549
1306 1 3.067 5.10055 20.9372
2521 1 2.43029 4.37238 21.3265
842 1 2.19889 5.40501 18.6863
710 1 2.19437 3.02976 18.4476
6728 1 0.622258 4.45452 21.3712
3696 1 0.0377489 3.7436 19.0647
3796 1 3.56034 5.03307 19.968
734 1 3.97687 2.87475 21.0915
875 1 4.41249 2.80721 20.1343
2808 1 4.68694 3.56235 20.8071
757 1 3.69711 3.52455 20.2632
792 1 4.14936 3.38404 19.3244
872 1 3.8388 4.45383 20.8075
5603 1 4.29763 4.28731 19.8654
758 1 3.81011 3.92413 18.5256
681 1 5.32046 2.86726 21.3062
6689 1 0.285034 10.8666 21.0377
5759 1 1.3248 11.0009 20.7295
6900 1 1.62984 13.2419 18.4729
2720 1 2.27256 11.0704 21.2417
440 1 0.51093 11.5918 20.3674
6800 1 0.918138 13.4913 20.0384
639 1 2.3949 12.9575 19.2524
6527 1 1.32725 12.7881 19.3277
771 1 2.68376 12.4541 20.1421
682 1 3.02606 12.9366 20.9799
3703 1 1.87983 13.1143 20.1874
766 1 2.12809 12.4475 20.9964
6839 1 1.22392 12.0138 20.9072
739 1 2.14093 13.537 21.1029
635 1 0.471315 12.6403 20.4492
1810 1 1.23234 13.0798 20.998
1462 1 2.01714 11.6486 20.3758
2771 1 2.92926 11.821 20.9021
6868 1 0.213925 11.9654 21.3005
1709 1 0.757499 13.5816 19.0005
582 1 2.05541 11.9387 19.3673
722 1 3.17575 13.4329 20.0537
6646 1 0.220299 13.0313 21.4076
541 1 3.40948 13.1874 19.0364
1702 1 1.72182 13.7598 19.3931
2486 1 0.73723 12.6887 18.4377
6693 1 3.98417 12.9249 20.5233
1757 1 4.83682 13.5466 20.8349
689 1 4.32754 13.5513 18.6269
785 1 3.83769 12.4502 21.429
2641 1 3.82246 13.481 21.4046
1732 1 1.78472 1.22077 21.4461
2754 1 0.148268 0.132762 21.9355
954 1 0.993249 1.90819 21.5545
3941 1 0.404495 1.18051 21.9499
857 1 3.19155 2.03494 24.0217
2858 1 1.14762 0.471164 21.8089
2861 1 1.96109 2.10227 21.9421
10 1 2.727 1.38955 21.8561
2954 1 1.36666 1.36085 22.3933
2812 1 2.8777 2.24491 22.4155
3086 1 0.58706 2.084 22.4887
8 1 2.39099 2.58237 23.597
2806 1 1.56447 2.26146 22.9097
2788 1 2.14802 0.604225 22.2644
719 1 0.267496 2.61595 21.6569
1985 1 3.49296 0.705739 21.7481
2768 1 3.68317 1.55508 22.3332
2956 1 3.67613 2.21834 23.1388
901 1 4.03242 1.42766 23.8606
2901 1 4.46458 0.901157 22.177
2857 1 5.09904 1.77257 22.0851
3898 1 4.51582 1.62273 22.9647
2872 1 5.57464 2.04091 23.0247
2976 1 4.99626 1.88485 23.9382
5681 1 5.34942 1.01673 22.7673
2922 1 4.15357 2.45021 24.0854
924 1 5.9588 2.33105 23.9744
854 1 4.28957 2.41982 22.2827
3900 1 5.89411 1.30808 23.6752
870 1 4.70923 2.61926 23.2382
6924 1 1.27664 3.31265 23.0642
2881 1 1.49898 4.62411 21.8113
2903 1 1.58819 2.89932 24.2735
7588 1 2.55516 2.86325 21.5772
5945 1 0.352299 3.07311 22.6254
906 1 0.92803 3.84836 22.212
814 1 1.80716 3.61177 21.6803
2936 1 1.87314 4.06217 22.6322
925 1 2.58566 3.6346 23.28
20 1 2.7991 4.54874 22.9337
815 1 1.21026 2.82761 22.1029