ITEM: TIMESTEP
499000
ITEM: NUMBER OF ATOMS
8000
ITEM: BOX BOUNDS pp pp pp
0.0000000000000000e+00 2.7564674686161492e+01
0.0000000000000000e+00 2.7564674686161492e+01
0.0000000000000000e+00 2.7564674686161492e+01
ITEM: ATOMS id type x y z
1869 1 2.61491 0.732099 1.70675
2630 1 0.565698 0.431177 2.33859
4588 1 2.47201 2.5714 0.423718
6334 1 1.60883 1.85863 0.81091
2280 1 3.29855 1.79028 1.50802
3130 1 2.22711 2.62816 2.07639
30 1 1.21437 0.50353 0.166028
4985 1 0.517219 2.34499 2.39094
5872 1 6.39483 0.55929 2.53567
5894 1 4.65565 1.56106 2.35775
7916 1 4.27965 2.46023 1.35224
5602 1 6.40074 2.07372 1.31874
2330 1 5.69736 1.42429 1.94244
6661 1 3.98886 0.657828 1.65185
3854 1 3.81038 1.10547 0.683998
5797 1 5.31016 2.4929 2.36979
7438 1 4.18729 2.66616 2.55171
377 1 6.41174 0.338341 1.26054
1395 1 6.83334 2.46935 2.22629
6234 1 1.90475 4.09389 2.91136
2615 1 0.478776 3.89054 0.619661
1237 1 2.40603 5.30614 0.887523
3851 1 2.63841 4.32605 2.04178
7547 1 1.71102 5.43393 2.19418
6524 1 1.37282 4.99016 1.04483
7206 1 1.24815 4.26166 2.04865
6654 1 3.18787 2.88673 1.46186
6659 1 0.0937085 4.38931 2.56411
5876 1 4.7454 2.86302 0.516338
4539 1 5.48479 3.19618 1.17873
6886 1 4.33023 3.4979 1.38215
2659 1 3.51307 3.90805 2.48906
6827 1 3.46507 4.91685 1.49322
4058 1 4.34389 4.38204 0.830572
7926 1 5.77806 3.74471 2.2756
1152 1 5.84945 5.23816 2.49434
7248 1 6.55216 3.20558 0.528815
5381 1 6.84246 4.61748 0.46123
2927 1 0.609759 7.90455 1.67419
3210 1 2.49338 6.41083 1.3505
2477 1 1.90693 7.36143 1.09679
5249 1 3.27868 6.94931 2.1067
6019 1 1.36823 7.10964 2.2014
3474 1 2.62898 7.97476 0.0336144
6717 1 1.14669 6.04712 0.867262
3317 1 3.02568 8.14527 1.30186
2174 1 2.83525 5.70726 2.37137
3098 1 0.585604 6.52727 2.27563
1321 1 1.1645 7.38671 0.00956402
7888 1 3.0132 5.78867 0.081791
782 1 6.52548 5.81209 0.258502
1180 1 6.39741 6.0425 1.71186
4937 1 4.38113 5.89309 2.70339
2867 1 4.56314 7.88 0.319295
4167 1 6.05367 7.33365 0.720375
6792 1 5.17011 7.02964 2.78172
1360 1 3.56669 6.76012 0.98817
1191 1 5.48675 6.46259 0.552813
1858 1 4.49175 7.64608 1.39778
58 1 6.75118 7.74086 0.051597
7970 1 1.3901 9.71873 2.69263
4559 1 3.18383 9.6224 1.38848
7180 1 1.90326 9.03646 1.96346
5254 1 2.05008 10.6793 0.239252
1915 1 2.4476 9.97435 2.66831
7716 1 1.45478 10.8955 1.67505
5686 1 2.68037 10.5735 1.70838
3094 1 1.49972 9.71921 0.606919
6061 1 0.499063 10.5202 0.427936
6345 1 1.07046 8.68947 2.73778
1987 1 3.42096 9.75966 2.68021
5552 1 0.122156 9.29881 1.50055
7514 1 2.79483 9.21931 0.0824383
4653 1 6.03213 8.59587 0.668133
1113 1 3.49129 8.70881 2.73615
3448 1 4.63364 9.75407 1.09441
692 1 3.66352 8.43361 0.504624
1471 1 3.78199 10.4325 1.79802
5079 1 5.58389 10.1966 1.56876
1280 1 4.72143 9.8148 2.11682
4959 1 6.76166 10.8026 0.0270379
821 1 3.77155 10.5365 0.210455
1873 1 0.162643 11.496 2.49925
3895 1 2.78167 13.7376 2.2732
5143 1 2.56973 12.1758 1.73539
3598 1 1.21644 11.6504 2.70214
4783 1 2.09094 11.392 0.980735
7956 1 1.5882 12.9788 2.92987
5885 1 3.27337 13.1772 1.19099
3376 1 0.548142 11.9043 1.0689
4130 1 3.40109 12.0572 2.93485
1288 1 1.34874 13.2222 1.06317
968 1 6.7203 11.177 1.40991
574 1 4.2564 11.3364 1.18972
3292 1 5.53041 11.5447 1.12971
5224 1 4.30107 11.5669 2.7347
78 1 5.38843 13.3435 0.646772
7279 1 5.36285 12.6299 2.4848
3605 1 5.84521 11.3032 0.01198
702 1 5.9975 13.4994 1.8869
5408 1 6.56209 12.2454 1.66222
1637 1 5.48343 11.7394 2.99359
1305 1 6.29329 12.5428 2.85891
5200 1 6.84905 12.1135 0.476388
6172 1 1.94813 0.368936 3.42486
7743 1 1.05233 1.42092 5.93781
1256 1 3.12246 1.07825 4.16616
3356 1 1.02523 1.16389 4.41579
6306 1 1.90972 1.87983 5.61238
5869 1 2.70003 1.75101 3.25164
177 1 2.00727 1.50126 4.60726
5910 1 0.0634284 0.208511 3.21121
4657 1 1.99308 2.62361 4.09266
7142 1 2.99252 2.43102 5.79268
7578 1 0.430201 0.156772 5.78561
7320 1 0.32726 1.791 4.97553
7538 1 6.80167 0.656615 3.47749
187 1 3.49774 2.04681 4.62739
5911 1 4.13374 1.41962 3.24963
3162 1 4.55416 2.46136 3.4918
2360 1 4.91404 0.0812648 5.23016
5201 1 6.2106 0.664454 5.90518
6167 1 5.79862 1.34416 4.67076
5270 1 4.14343 1.26308 5.29501
5494 1 6.28068 0.308898 4.89529
7434 1 4.14079 0.525058 4.47282
6824 1 6.70555 2.41336 4.9147
6732 1 6.27783 2.71566 3.65828
4797 1 5.01114 2.04035 5.56957
250 1 5.09341 0.413299 3.31471
3140 1 3.015 4.708 3.14545
2172 1 1.19802 3.62462 3.73718
5730 1 1.64735 2.84335 5.53234
4688 1 1.62345 5.30302 4.94848
7887 1 1.44989 5.17627 3.84314
4193 1 2.30861 3.72307 5.82186
5355 1 2.62064 4.87901 5.59459
960 1 2.73964 4.23581 4.56624
1089 1 1.23974 4.1488 4.62048
5714 1 0.782831 3.31121 5.21243
3338 1 0.479814 4.69691 5.21649
5567 1 0.200201 4.27984 4.19693
4228 1 4.44196 2.92026 4.69512
3945 1 6.43923 4.45393 5.27742
1309 1 3.47285 3.50104 4.25736
1216 1 3.85544 4.31851 5.67515
4392 1 4.84002 3.46058 3.40458
4379 1 5.45366 5.11361 3.82003
6828 1 5.09559 3.30383 5.56337
2764 1 5.82315 3.29062 4.84634
151 1 4.30695 4.82268 4.74871
1490 1 3.96724 4.89582 3.47218
5880 1 5.95209 3.5688 6.09664
6977 1 6.2222 3.93028 4.0401
4224 1 0.50302 7.1714 3.23335
5818 1 1.09634 5.87614 3.2746
1337 1 1.0344 6.42093 5.70812
5258 1 1.80594 6.60814 4.84589
4505 1 2.23406 5.79589 3.54332
5554 1 1.59898 7.43457 3.41844
3265 1 0.685455 7.25373 4.41302
682 1 2.60769 7.26847 4.65672
2531 1 1.90466 8.23225 5.57693
2053 1 2.80518 6.35502 5.18285
1470 1 0.302888 7.97175 5.43811
5092 1 4.50303 5.80589 5.52673
3819 1 3.46029 5.68525 4.58993
5358 1 3.92795 6.76227 5.09271
7621 1 4.13053 7.6595 4.62748
6970 1 5.39746 7.59479 3.92494
752 1 3.69903 6.68637 3.42153
7725 1 6.29011 5.81218 5.59785
4163 1 4.32706 6.31701 4.26954
7820 1 5.23332 6.17742 4.85207
847 1 6.87286 7.87739 4.07021
2696 1 6.2595 6.55547 4.43626
5377 1 4.91939 7.71299 5.3967
442 1 6.66539 6.13423 3.23923
7525 1 2.02387 8.27734 3.12086
4482 1 3.16769 8.66351 3.96517
7707 1 2.29437 10.2401 4.70131
2058 1 0.232843 9.25136 4.58393
304 1 0.43564 10.3337 4.4188
2035 1 1.14071 9.16887 3.73843
7185 1 1.56095 8.47706 4.32183
3852 1 2.87514 8.61341 5.55315
320 1 2.27505 10.0848 5.69441
2920 1 0.100503 9.78889 3.29924
1927 1 6.0564 8.3552 4.90082
4211 1 4.42106 8.4859 3.23179
3500 1 4.04173 9.2304 5.33636
2454 1 5.80959 10.4593 5.33826
6134 1 3.47442 10.6373 5.83248
1930 1 6.01103 10.8068 3.23617
6349 1 4.74815 9.55949 4.10919
2728 1 4.98959 8.79403 5.53112
3266 1 5.47289 10.5609 4.36443
7389 1 3.72493 10.4305 3.77543
7039 1 4.57541 10.3351 3.13125
1900 1 6.39975 9.79389 4.13148
1154 1 2.59447 11.3563 4.28446
4769 1 0.608652 11.4465 4.5572
6297 1 0.718612 11.2238 3.52626
5237 1 2.72858 12.8242 4.12351
5627 1 1.34551 12.3853 4.31578
3025 1 1.4518 13.5274 4.54197
5550 1 2.57236 11.263 5.72857
3951 1 3.40435 13.4934 5.27782
5383 1 0.772112 11.6563 5.83092
4178 1 0.142143 12.1615 3.6931
1474 1 1.34054 13.0163 5.79811
155 1 2.13178 12.3334 6.10483
5746 1 3.9372 13.7443 4.03321
1391 1 4.44707 12.4832 3.38812
7250 1 4.08205 11.5373 4.89636
2935 1 6.16958 11.7473 5.66267
16 1 5.66337 11.7654 3.97535
2202 1 3.90858 11.7262 3.76633
3367 1 5.28438 12.719 4.25448
5207 1 3.95815 12.5162 5.35892
2409 1 6.12314 13.1419 5.42578
4866 1 5.12733 13.6806 4.59218
5616 1 6.74726 11.3818 4.88502
5937 1 5.58427 13.7538 3.4931
3174 1 1.59706 1.17708 7.763
359 1 0.981202 0.141867 8.36435
928 1 2.50922 0.0959296 6.96432
2523 1 0.637951 2.58304 6.52151
4552 1 3.04537 2.62936 8.83447
5148 1 2.51307 1.69904 7.43327
2164 1 1.52142 2.47278 7.91709
4813 1 1.49925 0.541387 6.36323
6473 1 0.0354597 1.27499 7.86644
1339 1 2.108 2.75415 6.63464
308 1 3.40543 1.91247 8.00341
107 1 0.542692 0.887139 9.12191
6144 1 1.96569 0.530917 9.18295
505 1 6.13325 0.18994 7.46045
1746 1 3.87542 1.98553 6.49723
3228 1 3.71981 0.735325 8.15162
3160 1 4.73781 0.353707 8.27897
4080 1 3.48761 0.896139 6.92716
995 1 4.50239 1.09515 6.24029
1010 1 6.31321 0.791373 8.37733
1247 1 5.27613 1.20609 8.17931
2277 1 6.54402 1.38333 7.0878
669 1 5.31 2.1919 6.84284
2208 1 4.23138 2.18081 8.90715
3596 1 6.04392 1.58244 9.1105
2408 1 2.95537 3.64635 7.18131
658 1 1.20741 3.11812 8.75288
851 1 1.32463 4.26989 6.61054
1036 1 2.45433 3.58051 8.41316
798 1 0.170106 3.67275 6.38703
1570 1 1.76837 5.10585 8.02131
2089 1 1.84317 3.40916 7.46878
5038 1 2.91046 4.70898 9.18664
5338 1 0.539203 4.62169 9.16606
1412 1 3.00346 4.75783 7.92891
3883 1 1.69248 5.35527 6.99644
7927 1 0.208198 2.86088 8.66725
941 1 5.31065 5.31526 6.29867
1049 1 4.39227 3.16529 7.0867
4629 1 3.812 4.17435 6.63248
2766 1 4.38608 4.665 8.13899
288 1 6.66899 3.37719 8.52841
1878 1 6.01963 2.81233 7.16494
913 1 5.76582 5.40356 7.432
1314 1 4.52649 3.3523 9.0136
5045 1 5.35264 3.99418 6.8764
6128 1 6.16567 4.11738 7.71885
7298 1 4.81943 5.26218 8.82481
6922 1 6.75806 4.76898 6.35593
3799 1 5.3707 4.16784 9.05032
7376 1 2.18125 7.20503 8.1648
1156 1 0.304477 7.20908 6.20906
3252 1 0.833841 6.02895 8.37419
1792 1 2.7977 6.19453 8.0246
1311 1 1.28326 7.58533 6.57966
5032 1 1.17425 8.08037 7.70977
3011 1 2.62091 7.43365 6.53483
2237 1 1.0842 6.58718 6.7578
2802 1 0.6652 7.14708 8.31257
6102 1 2.55127 5.95572 9.11714
2976 1 6.17485 7.0702 8.14296
2130 1 6.48571 7.75134 6.58832
2422 1 5.40596 6.14074 8.95521
3708 1 3.73683 7.7787 6.2279
1820 1 6.30906 6.54371 6.76916
461 1 4.26063 6.85283 7.67421
7441 1 3.6857 5.71893 7.82464
3377 1 5.00086 6.03108 7.75137
5271 1 4.87426 6.6676 6.48817
978 1 3.64085 7.68743 7.51698
1139 1 5.4351 7.74918 6.52724
3735 1 1.47354 9.19863 8.91292
5800 1 0.548443 8.63369 8.44966
4279 1 0.0146612 8.30041 6.52768
7075 1 1.50216 10.0317 6.89402
7549 1 0.218673 9.85277 8.11426
5460 1 3.08647 9.16198 8.90906
3040 1 0.375746 8.90734 7.44017
972 1 0.856258 10.5642 7.54973
3079 1 2.27005 9.12973 7.80902
3630 1 2.53386 10.2125 8.1735
5088 1 1.694 8.57537 6.78375
5662 1 3.19497 9.02581 7.00508
3274 1 0.626094 10.7731 6.56683
5900 1 4.34762 10.9888 7.16579
5905 1 6.28748 8.88303 6.31012
6587 1 3.49279 8.29285 8.60875
5461 1 3.77277 9.76124 7.83056
5965 1 5.60132 9.61511 8.97126
7580 1 5.58652 10.4232 7.22116
318 1 6.84581 10.331 8.5861
4619 1 6.64675 10.858 6.15877
7244 1 4.31805 8.73056 8.03621
7032 1 5.38486 8.81149 6.98283
4631 1 3.47959 10.9589 8.62317
350 1 4.36877 10.5264 8.89052
3840 1 4.7811 10.946 6.18076
4261 1 5.29918 10.922 8.71831
2978 1 6.44597 8.4755 8.21281
146 1 0.0495789 12.899 8.33962
629 1 1.93501 13.4971 6.44496
3577 1 1.56362 11.517 8.24486
6419 1 3.12436 13.7788 6.78968
3177 1 1.04452 13.6867 8.87888
1710 1 1.05239 12.8349 7.0718
645 1 0.760575 11.6023 7.23263
2595 1 2.31218 13.401 7.50586
6614 1 3.13723 12.9396 7.77557
840 1 3.75381 12.3271 8.71251
3489 1 5.35343 12.9769 8.533
7879 1 4.12197 12.5369 6.5292
3421 1 5.87237 12.1502 9.04475
5197 1 5.94659 13.5677 7.13667
1201 1 4.9899 12.2898 7.81857
1590 1 4.15172 13.2268 7.47617
1345 1 4.11653 11.5963 8.04673
7048 1 6.88941 11.2932 7.4719
2843 1 5.76853 11.7341 6.80195
4503 1 6.70927 12.0958 6.46197
6992 1 3.34149 1.77156 9.30515
3537 1 1.39507 2.0497 12.1671
2412 1 1.29869 0.81004 10.0333
2758 1 2.68755 1.39511 10.4461
2118 1 0.212211 1.81468 11.5811
2900 1 3.32531 2.11279 10.5629
1896 1 1.23904 0.804626 11.3255
864 1 1.46094 2.01018 9.66491
7170 1 0.614175 2.67688 10.98
779 1 0.44971 2.30141 9.93946
3816 1 4.1976 0.700543 10.5712
3486 1 3.60572 2.40805 12.0664
3639 1 4.12015 0.314599 9.21589
1783 1 5.76638 0.813997 10.9597
3183 1 5.08607 1.06312 10.0848
6604 1 5.45066 2.26262 9.79318
842 1 6.63666 2.41787 10.9272
7623 1 5.25141 1.5958 12.165
5542 1 6.1096 1.86654 11.654
7005 1 2.92624 2.9002 10.1546
3552 1 1.67935 3.30686 9.67507
4571 1 1.97938 3.58046 10.7318
4875 1 0.913708 4.05425 10.6835
4471 1 1.24879 5.0575 10.6736
918 1 1.54547 3.89978 11.787
4798 1 3.02885 3.2662 11.4387
4673 1 1.74663 5.1242 9.45653
7562 1 0.618219 3.29359 9.7191
1128 1 1.93922 5.11514 11.7305
5190 1 0.348902 4.41163 11.5816
5978 1 4.24916 3.01415 9.9061
2232 1 3.97827 5.04701 11.464
2192 1 4.36209 4.98893 10.1388
594 1 5.32551 2.8635 12.2082
5781 1 5.97472 4.96951 11.0155
2573 1 4.28465 3.05369 11.3658
2005 1 4.17269 3.86394 12.0416
5165 1 4.99767 5.1256 11.7446
6242 1 0.184037 5.70233 10.8129
6366 1 1.21717 5.77967 12.1158
5760 1 0.614829 5.71913 9.66073
5316 1 2.9856 5.54319 10.069
3482 1 2.02158 6.00668 10.1863
7446 1 1.74387 6.69426 11.1127
4756 1 2.91067 8.04639 11.4778
4579 1 0.313403 7.33558 10.4278
3740 1 3.20204 7.41321 10.6769
7362 1 2.85187 8.11073 9.41352
5799 1 1.71938 8.23073 10.4775
3420 1 1.73676 7.93155 11.7379
5707 1 2.33391 7.22166 9.48905
3979 1 0.102498 7.53011 9.21162
7305 1 2.65094 6.16287 11.4559
4337 1 1.34333 8.12497 9.43499
5559 1 6.6096 5.98325 11.5426
3295 1 4.81989 6.99713 10.36
7127 1 6.45979 7.6752 11.6616
4815 1 4.98524 5.94591 10.0276
5222 1 5.62059 6.84004 11.5191
1402 1 4.45607 6.50533 11.2146
5693 1 5.73101 7.50727 9.99831
4466 1 4.56235 8.07211 10.2608
5407 1 3.85072 6.16655 10.4641
4885 1 3.94062 7.94574 12.0683
6994 1 3.93141 7.47668 9.38984
1299 1 4.12479 6.19618 9.33699
14 1 0.218299 10.4683 10.517
1174 1 3.23092 9.63291 11.9314
7107 1 2.95201 9.94934 10.0386
7304 1 2.60693 10.586 10.9829
5692 1 1.47304 9.86599 10.2974
639 1 1.68928 10.7461 11.9274
5972 1 0.483356 8.97432 11.0187
2080 1 6.76533 8.6133 10.7923
2170 1 4.72745 9.51609 11.1707
2008 1 6.3309 10.3234 9.56548
3682 1 4.55608 8.49895 11.3362
179 1 6.07575 9.72039 11.0613
680 1 3.68241 10.7313 10.6598
1285 1 4.11921 10.251 9.83415
7638 1 5.584 10.8435 10.2993
2522 1 5.51857 8.39474 9.27832
3873 1 5.67905 9.03364 12.1646
5155 1 5.91289 10.3196 12.2116
5322 1 5.03825 9.05906 10.2433
4531 1 6.44805 10.726 10.9233
1972 1 6.35205 8.85693 9.79912
2657 1 0.208724 11.7842 9.39998
7213 1 2.9045 12.3402 9.39969
2328 1 2.59818 11.7577 11.3058
6299 1 1.26496 11.1641 9.2839
2392 1 1.46411 12.1272 9.89236
1836 1 3.37381 12.3065 11.7246
6050 1 2.14696 13.3184 9.96256
31 1 0.868377 11.3165 10.6423
5219 1 1.81191 12.3282 11.6384
7128 1 0.820803 12.6645 12.2169
7650 1 0.879307 13.1286 9.88081
3968 1 3.38466 11.4505 9.80508
2572 1 0.201225 11.3388 11.9663
894 1 1.62399 13.2016 11.0423
3578 1 3.27896 13.6035 9.85075
4246 1 0.500714 13.3267 11.2997
700 1 2.5607 12.9182 10.907
3372 1 6.46246 11.9254 11.8612
4188 1 4.59116 11.0761 10.173
4830 1 4.4408 13.2948 10.4111
6900 1 5.06179 12.763 11.2052
5844 1 5.49257 11.5789 11.4359
853 1 3.49611 13.4808 11.9405
1134 1 3.73833 12.4853 10.0036
7599 1 4.74117 12.7125 12.1809
6000 1 6.45419 13.6876 10.4295
6012 1 6.54156 13.5463 12.2211
6333 1 1.37722 1.80589 13.1554
5837 1 1.22982 0.657637 13.9956
7038 1 1.70055 2.02612 14.629
4679 1 2.53587 2.07297 12.3884
6126 1 2.20458 1.32869 13.8559
3452 1 2.33716 1.03661 12.7799
371 1 1.64873 0.0866616 12.9298
5233 1 1.07732 1.19748 15.1207
6216 1 1.02476 2.35326 15.3049
3777 1 0.184913 2.25765 14.6949
3473 1 0.595371 1.36263 13.7847
2324 1 3.84515 0.82025 12.2575
1077 1 3.64578 1.01602 14.6664
2295 1 5.43201 1.7199 13.2188
2673 1 6.1991 0.985556 13.7725
7967 1 5.41386 1.48537 14.2661
2349 1 3.91717 0.371217 13.3557
1777 1 4.32489 2.27251 13.6787
6003 1 5.79362 1.96291 15.089
1468 1 6.09586 0.826651 12.787
6393 1 0.223734 3.60927 13.3276
7609 1 2.72125 4.23268 12.4128
5005 1 1.56475 3.5315 15.1764
576 1 2.41975 2.85189 14.8324
2610 1 2.23457 5.24792 14.5015
6273 1 1.14302 3.0086 12.7648
7456 1 2.7076 3.17093 13.4862
2581 1 0.975696 5.457 14.5166
6626 1 1.67516 4.29291 13.1938
5877 1 2.74771 4.62525 13.6913
5933 1 3.33747 3.38646 12.4743
5892 1 0.563173 3.4336 15.2366
5153 1 4.5692 2.84994 14.9155
6481 1 5.29687 3.01213 13.5332
5718 1 5.51843 4.49822 14.332
6526 1 6.87087 3.76195 13.2409
6876 1 5.33721 4.03717 13.1101
7431 1 4.36054 4.01432 14.4963
1949 1 6.15491 5.07597 12.8747
6207 1 4.27132 5.45319 14.3221
3872 1 3.50715 3.33926 15.2283
3561 1 0.890305 7.20279 12.9462
2736 1 0.191732 5.94717 12.6375
3724 1 1.3422 6.03773 13.0979
6862 1 0.280284 6.44264 13.9173
4101 1 2.06142 6.71674 14.0049
3468 1 1.24446 7.56241 14.2632
657 1 1.48224 6.37217 15.179
5645 1 1.94911 6.59029 12.4374
2947 1 2.69771 6.17496 12.9613
5525 1 2.47621 6.65454 14.9639
3548 1 1.69145 8.06547 13.1773
6354 1 3.40954 7.88354 14.7382
2306 1 6.06371 7.28776 14.3831
328 1 3.66753 6.1309 12.387
2513 1 6.73166 6.4083 15.2713
4790 1 4.61837 7.10573 13.2157
5680 1 5.16668 6.08182 13.153
4570 1 5.51968 6.3932 14.6018
5451 1 3.77767 6.44437 13.3569
2245 1 6.20191 6.39739 12.869
6044 1 5.94291 8.13604 13.0899
6618 1 3.63844 7.46989 13.4918
3358 1 6.37738 5.56529 14.7931
1718 1 2.39692 8.44616 12.5158
3783 1 2.03185 8.67275 14.2397
1353 1 0.486268 10.588 13.8733
2972 1 1.39045 10.443 14.6792
2778 1 1.47773 9.78003 12.5884
7462 1 3.27765 8.91962 13.9445
2368 1 0.456033 10.0169 14.7013
647 1 1.06993 10.8748 12.9464
7787 1 2.17275 9.82624 13.4135
623 1 0.521362 9.8662 12.9364
7398 1 0.801703 8.98625 14.6645
1102 1 4.64278 9.95849 13.0059
2705 1 5.01079 9.71677 14.9434
1357 1 5.27795 9.64246 13.8175
1096 1 6.19986 9.78422 13.2837
1101 1 5.04061 8.39886 13.5343
7272 1 5.94933 8.77588 14.297
2405 1 4.39456 10.8134 13.5589
1501 1 4.37557 8.64068 14.9817
4015 1 1.15616 13.7764 15.0029
7416 1 3.3856 11.2903 12.8471
3894 1 1.44408 11.8974 12.5148
6348 1 1.95137 11.3518 14.2503
7483 1 2.74226 12.0026 13.9881
3379 1 1.0697 11.9853 13.5095
3983 1 1.81859 12.8763 12.9037
6644 1 1.24983 12.6321 14.8947
1148 1 2.80646 13.2517 13.9687
444 1 0.229256 12.551 13.6799
306 1 3.23694 11.2572 14.8006
4740 1 6.06067 11.1057 13.1124
6405 1 3.69557 13.363 14.9407
1887 1 4.2229 11.4242 14.8266
6669 1 4.83545 13.2256 13.1435
5448 1 4.58515 11.8235 12.8242
3864 1 4.0016 11.7485 13.7784
2525 1 4.58298 12.9719 14.6213
3076 1 5.38915 12.2368 13.9085
3006 1 5.84429 13.5732 13.2531
430 1 6.64387 12.1398 13.3956
1844 1 2.59979 0.342663 16.709
190 1 0.804073 0.547521 16.5171
3282 1 1.40318 2.23872 18.075
3187 1 1.78715 1.29584 17.1597
4306 1 0.189654 2.54659 16.8127
4088 1 1.12576 1.13554 17.9333
2858 1 2.90645 2.16077 15.8317
5226 1 1.67268 0.0402043 16.1838
4964 1 2.6383 0.736024 15.5798
5895 1 3.32016 1.76613 16.7669
5857 1 2.73628 1.3444 18.0168
3103 1 6.20517 0.121691 17.2605
1554 1 6.88267 1.32329 16.2341
7773 1 6.82378 2.1568 15.4555
7779 1 5.49492 0.71341 15.8159
486 1 3.72431 1.27667 17.7324
4872 1 3.70623 0.655738 16.8339
2718 1 3.79258 0.129533 15.5074
1117 1 5.03367 1.46893 16.2615
778 1 6.01613 1.13708 16.915
908 1 5.96338 2.00986 17.5191
2691 1 5.32141 2.54062 16.9804
1815 1 3.90976 2.6223 18.0516
3711 1 2.38738 5.46015 16.006
5061 1 2.47889 3.97194 16.6125
6989 1 0.899163 5.35933 16.1632
7363 1 2.57919 4.74328 17.3902
6872 1 1.89455 2.90736 16.9165
6734 1 1.94632 4.66636 18.2363
3191 1 0.581196 5.41819 17.3162
5374 1 0.0621556 4.97531 15.3881
940 1 1.18975 3.33073 17.5617
1252 1 6.42086 4.87974 15.676
1386 1 5.60745 5.25254 16.3657
4172 1 4.98362 4.34385 17.3234
1723 1 5.51315 3.5598 16.7637
4025 1 3.65863 3.76844 18.0661
7995 1 6.05239 4.84864 17.5232
1044 1 6.31098 3.04091 15.4558
5759 1 4.75276 4.96889 15.5238
2585 1 4.99239 3.53007 18.0461
6602 1 1.28678 7.49459 15.4002
7081 1 0.0748448 7.59885 17.7659
1843 1 3.11096 6.17876 17.8206
6873 1 0.556131 7.29951 16.4855
6747 1 2.04037 7.01502 18.3761
6484 1 1.95799 6.81365 17.1907
2287 1 1.69621 5.67392 17.4129
3797 1 3.14763 6.61725 16.1578
141 1 1.24747 8.12084 17.2799
4 1 6.77775 7.55642 17.1893
1499 1 4.95641 7.81482 16.8494
7826 1 3.99006 6.06119 15.4537
2156 1 4.78615 7.17631 15.6259
3709 1 5.04219 5.86016 17.3377
7451 1 5.45994 7.85111 18.0401
6291 1 5.78026 6.73935 17.8119
4197 1 5.19529 6.13153 15.6412
282 1 3.89783 7.77598 17.2328
5579 1 4.09073 6.72308 18.0244
2956 1 5.92818 7.12656 15.9303
6282 1 6.75406 5.73235 16.2627
330 1 0.362396 9.01727 17.4368
2177 1 2.68905 8.55701 15.3256
401 1 2.17979 8.63952 16.444
7312 1 2.61773 10.7386 17.4861
5856 1 1.49362 10.9873 17.6127
5808 1 0.771187 10.3759 17.1008
6567 1 1.00441 9.55753 15.5855
7985 1 0.8902 8.55462 16.3873
1578 1 2.84247 9.68537 17.4004
2882 1 2.61257 8.37991 17.9613
2091 1 1.62974 9.68834 17.3683
4737 1 6.03722 8.38179 15.6659
7516 1 6.36801 8.57301 18.247
747 1 3.58595 9.57552 15.4151
7741 1 5.37136 8.78665 17.5542
6901 1 4.33055 9.99418 17.8681
4718 1 6.20906 10.4115 18.0832
6651 1 3.59799 8.69789 17.6824
1780 1 3.70968 10.6943 15.6483
848 1 5.31511 9.92839 17.1343
3163 1 4.76941 10.422 16.3539
2603 1 5.54979 9.28578 15.8255
3948 1 2.68066 12.9326 17.5798
4473 1 3.30278 13.5945 18.2022
3088 1 1.4547 11.2465 15.5206
2255 1 1.93724 11.1799 16.5189
5502 1 2.62282 13.1555 15.3431
7222 1 2.55546 12.2791 16.3138
7515 1 0.57141 13.4237 16.9366
6192 1 0.746577 11.8539 17.1737
5574 1 0.558488 11.2225 16.0347
744 1 3.0528 13.4784 16.5583
5792 1 1.76425 12.3142 17.6971
7655 1 1.4518 13.3229 18.2549
4645 1 0.215782 13.0287 15.4118
5138 1 6.28861 11.1883 15.6845
5518 1 5.05042 12.9812 16.0215
2375 1 3.51651 12.1645 17.7863
4944 1 5.84203 13.7416 15.3614
5274 1 6.57856 13.6671 17.1544
2961 1 5.53595 11.2031 18.2679
7572 1 5.75721 12.3207 15.3714
3417 1 3.59858 11.0495 17.9078
5566 1 4.4212 12.322 18.3374
5615 1 4.53311 12.8142 17.4365
579 1 3.51668 11.9122 16.3931
7171 1 4.72499 13.6024 16.8537
5414 1 1.30312 0.59259 19.6263
3017 1 1.06556 0.317772 20.6831
2233 1 2.88799 2.5661 19.7618
2073 1 0.555579 2.0659 18.5638
6640 1 2.29643 1.55922 20.5675
2434 1 0.925883 2.71169 20.0103
7030 1 1.95488 2.55459 21.2365
1340 1 2.74044 2.29269 18.6827
7420 1 0.160819 1.74879 21.2785
2954 1 0.249384 1.03412 18.6991
7529 1 2.00114 1.92395 19.624
5191 1 0.316094 0.0174817 18.3857
3123 1 5.3553 2.55911 19.0856
5560 1 6.25496 2.11062 19.8261
2439 1 4.72518 1.5325 19.4785
5107 1 5.56681 1.59741 18.6691
201 1 5.55801 0.672619 19.9722
3750 1 3.69791 0.501665 21.3572
130 1 6.39195 2.43964 18.8046
2054 1 4.33083 0.587181 19.7852
1612 1 0.733837 4.54692 20.379
7360 1 2.51768 3.24257 20.6046
6893 1 2.47531 3.66094 19.4427
3743 1 1.49405 5.49553 19.2268
947 1 3.08427 4.47107 19.3477
6264 1 0.167917 5.34406 19.0132
4047 1 1.34728 4.32313 19.2036
2695 1 2.28705 4.7446 20.6689
3842 1 0.724381 3.75639 18.397
4979 1 3.78763 3.80131 20.7197
2761 1 5.66436 5.2273 20.2173
4277 1 3.80782 3.02516 19.2556
5154 1 6.31907 3.49827 20.8558
3787 1 4.36346 2.95639 20.3519
6305 1 4.32556 4.73856 20.6722
3 1 4.31157 4.88438 18.4535
7792 1 6.08561 3.91346 19.3877
2998 1 2.1038 5.74098 20.2303
1652 1 0.972788 6.00384 20.771
6986 1 0.0451702 6.8844 18.8503
2561 1 1.33141 6.77788 19.7584
2376 1 0.169316 6.56452 20.129
7084 1 2.22329 7.95194 20.2774
7071 1 3.14664 7.34298 19.8625
2281 1 2.19906 8.25082 18.8754
3583 1 3.44275 8.15306 18.5449
3133 1 1.16082 7.85519 21.2977
6622 1 2.11704 7.18158 21.4384
6060 1 0.252779 6.40879 21.3562
1661 1 0.867329 6.29427 18.4465
7331 1 3.59448 5.58097 20.8135
1439 1 3.72657 6.75748 20.831
5397 1 5.33765 7.03438 20.3875
4982 1 3.71249 5.97998 19.4874
5310 1 5.13186 6.6622 19.3578
884 1 3.52716 7.88798 20.7761
5126 1 6.37281 7.2133 19.4787
3447 1 5.02462 7.81579 20.9427
7179 1 4.684 5.61527 20.0014
3553 1 6.57241 8.20289 19.6326
3539 1 2.63904 8.90188 20.2873
1724 1 2.07907 10.1224 20.6709
5898 1 0.815794 9.03261 21.2511
1549 1 1.33028 10.5587 18.7698
4302 1 1.26142 10.716 20.2081
7109 1 2.48221 9.00243 21.4101
4736 1 0.863155 8.65034 19.4594
7060 1 3.35658 9.64756 20.8308
248 1 2.76391 10.2024 19.8435
1722 1 0.380982 10.3065 18.4537
314 1 1.45987 10.8901 21.3299
800 1 0.574067 9.60482 19.7274
6112 1 5.21442 9.33585 18.984
6536 1 4.53785 8.32737 18.7333
6599 1 5.33598 8.49496 19.8256
2514 1 4.69307 10.149 18.8908
5706 1 5.53679 10.4794 20.4438
1929 1 4.1689 10.6013 20.3402
4580 1 4.61305 9.0933 20.9389
5541 1 6.483 9.24717 19.7764
3755 1 4.28133 10.2343 21.2707
6230 1 5.59177 9.31543 21.3635
6804 1 0.0410244 13.6474 19.5431
2612 1 2.60097 11.5769 19.8372
6948 1 0.486418 12.3341 18.4672
2440 1 2.22484 12.4328 19.5038
4622 1 1.36285 13.3748 20.4263
4990 1 3.33613 12.8425 19.0335
7798 1 1.90238 11.8628 20.5248
7402 1 1.54624 11.6439 18.9317
1450 1 1.88701 13.6123 19.5602
7639 1 3.34305 12.3088 20.0707
4577 1 2.46159 13.3045 20.629
5402 1 3.26929 12.3964 21.1611
510 1 2.65448 11.8913 18.3943
6952 1 4.75382 11.2322 19.065
1202 1 4.39613 11.6337 21.2019
4027 1 4.30136 13.537 19.822
2526 1 4.3443 11.8562 19.8913
65 1 5.68931 11.7526 19.3564
1592 1 6.76375 11.3271 20.7349
5353 1 6.71794 13.0386 19.3133
3985 1 5.63026 12.0968 20.5142
4664 1 5.59246 13.4169 20.5942
550 1 6.85306 11.6231 18.5422
3804 1 4.26297 12.6569 21.0002
376 1 5.4858 12.8004 18.5981
659 1 6.58215 12.2263 20.0433
7203 1 1.53301 1.94122 23.2871
3207 1 1.71834 0.708399 23.3986
2430 1 2.18859 0.790364 22.4868
5665 1 1.61298 1.66989 21.9768
1279 1 3.13643 1.10285 22.9763
4751 1 0.852525 0.617922 21.8493
5717 1 0.711868 1.98559 22.6981
4374 1 3.43897 0.991378 24.2535
2788 1 2.6757 1.60378 23.9073
2052 1 2.82591 2.623 22.9008
925 1 0.497582 1.55364 23.8036
5993 1 3.21828 0.12768 22.7146
3681 1 5.54036 2.02178 21.5605
1323 1 4.29636 2.23313 22.5195
1629 1 4.45377 1.1065 22.6731
7494 1 5.89234 1.10227 22.6919
1369 1 5.05599 1.77192 23.7532
1295 1 6.66054 2.58844 22.7772
7253 1 4.42052 0.804434 24.4184
1941 1 4.11948 0.427542 23.3513
6386 1 5.02297 0.496989 21.7674
1586 1 6.56299 1.26 23.7964
299 1 6.68964 2.40386 23.7838
2670 1 3.16954 2.93482 21.5268
3284 1 0.876645 3.19133 21.9262
4111 1 2.93686 4.08431 23.294
1067 1 2.51142 4.79647 23.9628
654 1 1.0037 3.31048 22.9873
1355 1 1.93932 3.42955 23.7722
5771 1 1.86498 4.06589 21.877
6671 1 0.95154 4.73732 21.9361
564 1 2.95178 5.45151 21.7527
5809 1 3.33368 5.23831 23.27
2700 1 0.931372 5.26524 22.8893
5145 1 4.65115 3.08902 21.5472
5699 1 5.43835 3.06753 22.7026
1708 1 4.13646 4.38938 23.8269
4347 1 4.24748 3.73058 22.41
7532 1 4.07659 4.64169 22.8451
6993 1 6.43354 5.36355 22.1288
6760 1 5.79324 4.96112 23.3099
3664 1 5.02627 5.49116 21.9446
236 1 4.65923 5.20124 24.3154
1581 1 5.17328 4.02998 21.6766
2979 1 5.296 3.97345 24.0893
5128 1 0.222848 7.05486 23.7615
6467 1 2.78836 8.0399 21.8478
822 1 2.00969 6.08328 21.475
3004 1 0.189926 5.6669 22.066
6441 1 2.36748 5.7837 22.513
6796 1 1.81038 7.1568 23.0504
1409 1 3.02281 6.45052 23.0766
612 1 0.380557 6.66789 22.7817
6889 1 2.4614 8.05937 23.2056
7563 1 0.66702 6.04121 23.8753
5204 1 1.02267 7.83506 22.8386
7074 1 1.94349 6.22645 23.5437
2136 1 2.06344 7.0611 24.2118
4067 1 3.50238 6.92281 21.8854
4504 1 4.7656 6.86918 21.4523
1507 1 5.93111 6.08571 22.8067
3067 1 4.20826 7.53392 22.8657
6882 1 5.65314 7.43361 24.0961
4113 1 5.66594 7.47259 21.9993
2037 1 6.34283 7.04231 23.1482
158 1 6.82654 6.93787 21.9466
5278 1 3.49672 7.3181 23.891
3781 1 6.51258 6.2702 24.0016
2759 1 0.182858 9.13874 22.354
5595 1 1.19963 8.29967 24.1177
2896 1 1.83925 8.49424 22.2279
4256 1 0.501521 8.59733 23.2889
5747 1 1.66859 9.28175 23.1568
2225 1 2.51244 9.30975 23.8353
4118 1 1.42777 10.2707 22.6067
476 1 2.32055 9.67761 22.3403
4992 1 1.76086 10.14 23.9937
2159 1 0.790936 9.63186 24.1028
1488 1 0.473732 10.9452 22.9011
6579 1 3.14425 10.8595 23.9734
1197 1 0.183802 10.828 21.4695
1823 1 4.94714 8.79945 22.6035
1977 1 6.55816 8.92506 22.2868
1019 1 4.04215 8.68482 21.7533
150 1 6.00308 9.01268 24.1462
2413 1 4.51154 9.57038 23.1745
6851 1 5.29814 10.6023 22.0788
1692 1 6.1582 9.40742 23.1989
7276 1 6.55666 10.6722 23.9548
1420 1 3.49523 9.25451 23.3085
2771 1 6.0848 10.446 22.902
5217 1 6.82977 10.2039 22.2631
1413 1 6.37491 8.28935 23.1546
443 1 0.110254 13.4947 22.4013
1464 1 2.8403 13.6759 24.0071
6471 1 3.03037 11.548 21.8031
5469 1 1.87333 11.2598 22.8098
7403 1 1.76436 11.923 21.8861
6920 1 1.85567 12.4509 24.0058
3359 1 2.48329 12.6304 22.8974
5468 1 0.916104 12.8897 21.5921
4383 1 1.4082 13.2338 23.2702
749 1 1.16288 13.7307 22.1583
3149 1 3.40275 12.1655 22.5726
5293 1 0.253015 13.0229 24.3522
7215 1 6.79388 13.6489 24.1035
3479 1 5.38078 12.6156 24.2308
4387 1 4.36575 11.0896 23.24
2411 1 5.29423 13.7292 23.9153
4196 1 6.70604 11.8507 21.8296
1840 1 4.67534 12.3891 22.4165
5955 1 5.64772 11.9663 21.9517
4263 1 3.83501 11.6922 24.0086
213 1 3.7163 12.9596 23.221
7598 1 6.29198 11.8905 22.8076
4245 1 4.87798 13.2475 23.1388
1213 1 6.22333 13.3859 21.7321
3125 1 6.01636 13.028 22.9952
3424 1 0.790942 2.73081 24.9164
2414 1 1.76428 0.910651 25.6051
7735 1 0.270907 0.436928 26.3857
4030 1 0.41251 1.5238 26.392
750 1 1.59562 1.30438 26.5347
2319 1 1.61223 1.47283 24.6384
4554 1 3.08393 1.81046 25.8177
2880 1 3.24824 1.13949 27.2933
5344 1 0.576781 1.94712 27.3992
7073 1 1.6474 2.68291 27.296
1936 1 5.86141 1.11557 27.2409
5850 1 3.97813 2.12161 24.7072
610 1 5.80117 1.74042 24.7102
5604 1 4.89809 0.367159 25.204
4293 1 4.84057 1.86465 25.1972
3024 1 5.84858 2.37974 25.6207
7118 1 4.877 1.72556 26.219
4826 1 5.55956 2.44443 27.2846
3111 1 6.58069 2.19098 27.5561
4314 1 6.64818 0.173865 26.596
7018 1 3.87978 1.54549 26.4885
3865 1 6.83736 1.12134 25.6649
1632 1 2.68003 3.17612 24.9243
6714 1 2.69277 4.10677 25.9086
5791 1 1.35647 4.55195 26.8078
784 1 2.90063 2.79369 25.9418
4891 1 1.63088 3.10773 26.1654
5716 1 0.792416 4.69864 25.6169
3759 1 1.36192 4.03769 24.511
5472 1 2.83672 3.32604 27.2475
2999 1 2.17779 4.61285 25.2039
4397 1 2.09083 5.095 27.473
7294 1 4.36564 2.87621 25.9523
4668 1 3.6719 5.37459 25.8605
7844 1 4.16443 4.36778 26.6008
1957 1 6.83462 4.70446 25.8175
1297 1 5.98295 3.71345 27.3414
7555 1 5.44722 4.61269 26.1804
2106 1 5.03231 3.64717 26.3716
200 1 6.36814 3.00059 24.5411
4512 1 6.59654 5.45983 24.9675
4701 1 3.60869 4.5258 27.535
2246 1 5.51861 4.8454 27.5347
4059 1 0.861509 7.16938 24.9582
3018 1 1.3589 8.17643 25.192
110 1 0.740564 6.13762 26.537
4841 1 2.3983 5.82654 24.7017
3733 1 2.68011 6.36929 25.5663
2150 1 2.12651 6.22982 27.3772
5660 1 1.85217 7.67212 25.9044
1248 1 0.0217864 7.24909 27.131
6048 1 3.65279 5.51649 24.7581
3744 1 5.05556 7.91349 24.8568
5481 1 4.79054 5.66744 25.7492
5727 1 5.19951 8.04833 25.8786
7017 1 5.76547 7.3163 27.1948
663 1 6.72907 7.30168 24.9049
671 1 4.80561 6.31789 24.702
25 1 3.87826 6.24149 26.9415
7192 1 5.98696 6.46535 25.3953
2098 1 5.32573 5.8539 27.3326
4667 1 0.55518 9.64789 25.1587
7542 1 3.1694 8.43161 25.3385
6770 1 2.68003 8.6323 26.6222
7841 1 1.91309 9.15472 25.4419
4970 1 0.30915 8.53309 26.5558
6341 1 0.285629 10.8861 26.8929
3083 1 0.706465 9.64023 27.2627
3034 1 1.93506 9.76702 27.0765
4582 1 2.71787 10.1444 24.9626