ITEM: TIMESTEP
90000
ITEM: NUMBER OF ATOMS
8000
ITEM: BOX BOUNDS pp pp pp
0.0000000000000000e+00 2.7564674686161492e+01
0.0000000000000000e+00 2.7564674686161492e+01
0.0000000000000000e+00 2.7564674686161492e+01
ITEM: ATOMS id type x y z
84 1 0.762513 0.446545 1.71027
6325 1 0.309281 0.752648 2.63938
181 1 0.431007 0.189616 0.778084
6372 1 0.108873 1.04582 4.49531
6110 1 0.356199 1.31921 5.70273
5440 1 6.40278 2.3314 3.47374
1948 1 0.0606334 1.31765 7.63653
4185 1 0.151243 0.921267 6.60662
2322 1 0.297182 1.40574 8.62908
448 1 0.411211 0.059316 6.22191
6142 1 3.36022 10.2223 8.25648
1348 1 0.138931 1.4656 11.3532
220 1 0.0392075 1.66597 9.61524
6047 1 3.58323 10.5247 9.19906
6631 1 0.417415 0.217331 14.7575
1553 1 0.292745 1.6088 13.2957
6330 1 0.347976 1.25865 12.3321
515 1 0.659694 1.20366 14.9511
489 1 0.444556 0.840935 13.9922
1546 1 0.121028 1.85702 14.3328
5755 1 0.539807 0.83053 17.6579
6526 1 0.549012 1.49674 15.9659
4700 1 0.246322 0.286672 16.756
6574 1 0.283564 0.503776 15.7414
6860 1 0.652162 0.304472 19.591
6870 1 0.202854 1.62948 21.1125
6908 1 0.466594 1.7914 19.9184
573 1 0.503943 0.757073 18.6827
837 1 0.198722 0.537731 21.3673
6725 1 0.127761 0.590725 20.3732
6910 1 1.17896 0.381179 20.5733
787 1 0.669065 1.11361 23.1657
842 1 0.335567 1.18855 22.0815
21 1 0.708146 0.106001 24.1776
151 1 0.933028 0.120218 27.4027
6194 1 0.342822 0.280064 26.5997
987 1 0.745232 0.685652 25.2378
88 1 0.057865 23.3734 2.6312
6878 1 0.223336 24.1113 1.08229
6169 1 0.279755 23.0635 0.676656
128 1 0.297382 24.2495 2.10837
6883 1 0.0314995 23.8857 0.125447
6995 1 0.568211 26.2317 0.12452
4870 1 1.09138 25.7018 0.735779
6182 1 0.362508 24.8368 0.434154
126 1 0.384718 27.0362 2.40227
204 1 0.326923 25.3142 1.38983
4230 1 0.754943 26.0731 2.78918
6877 1 0.236596 26.2811 1.06154
4089 1 0.993322 26.0468 1.75372
131 1 0.141453 25.3177 2.34217
6332 1 0.119666 23.0307 4.24336
6236 1 0.366985 24.4634 5.56283
167 1 0.369435 23.1301 5.21181
969 1 0.182094 23.8135 3.59364
6172 1 0.344216 26.0454 4.84105
4124 1 0.0333181 25.4504 3.32852
6027 1 1.00863 25.1022 5.06783
292 1 0.279208 25.0761 4.29801
213 1 0.692817 26.068 3.89279
6184 1 0.557152 27.3011 5.24412
6035 1 0.158719 27.0031 4.3601
4135 1 0.505185 26.9298 3.40755
266 1 0.201854 25.8229 5.82869
6540 1 4.58356 18.6862 8.00074
4335 1 0.288465 24.1267 7.67923
4520 1 0.128142 24.0007 8.67302
4279 1 0.33292 24.2713 6.564
6219 1 0.28666 27.0633 8.22649
6272 1 0.860312 25.9958 7.86098
6376 1 1.00457 25.0481 6.18378
176 1 1.00238 26.3765 8.77127
6270 1 0.144106 25.6881 8.61965
4374 1 0.533266 25.1022 7.21647
6472 1 0.707462 24.9803 8.18491
6121 1 0.768469 25.9787 6.70866
6323 1 0.585827 24.977 9.18583
120 1 0.544097 27.4942 7.24047
6382 1 0.384279 24.5324 12.0971
6385 1 1.18484 24.7168 9.93831
363 1 0.819207 24.6131 11.193
269 1 0.459287 27.1204 9.2502
6364 1 1.29233 25.4672 10.5618
419 1 1.42503 26.6768 10.7576
6379 1 1.45719 26.6592 9.72328
367 1 1.31091 25.8045 11.5291
4360 1 0.633228 27.1343 10.2714
6490 1 0.633767 27.167 11.3235
324 1 0.14755 24.9998 10.1313
6366 1 0.297815 25.9025 9.64695
568 1 0.808151 26.4823 12.1648
6425 1 0.127611 23.6243 14.9428
6371 1 0.233756 24.5173 13.0803
6387 1 0.309072 24.7104 14.8413
476 1 0.0390549 24.1126 14.021
6579 1 0.11105 23.4225 13.2474
6665 1 0.254913 27.2247 13.8022
6521 1 1.7344 26.1167 12.4673
545 1 0.883092 26.8551 15.1009
6487 1 0.868599 25.7144 15.2054
417 1 0.0195419 26.7011 14.6374
6477 1 1.0346 26.7228 14.1014
4567 1 0.898598 25.8253 13.0173
4573 1 1.21164 26.8158 13.0722
672 1 0.998915 25.5661 14.1981
424 1 0.175336 27.2068 12.7818
6676 1 0.514431 23.9159 17.5913
4545 1 2.35942 22.0727 17.7214
6478 1 0.642792 24.1323 15.6886
6634 1 0.916323 24.4366 16.7472
6582 1 1.03073 25.7456 18.3075
6531 1 0.615171 27.0578 16.1404
530 1 0.14555 26.3553 15.613
679 1 0.257271 24.9661 17.7716
6660 1 0.805408 26.9429 17.1108
521 1 0.178947 25.1583 16.7897
6539 1 1.207 25.0747 15.9912
6533 1 0.0236531 27.4206 17.6925
629 1 1.15313 26.7588 18.0621
6527 1 0.88006 26.0658 16.2642
588 1 0.810217 25.8479 17.3201
634 1 0.195685 26.3626 17.9683
6620 1 0.126678 25.0926 15.789
6615 1 0.563995 23.8405 18.6261
571 1 0.510584 24.5671 19.6593
6724 1 0.0570874 23.1716 19.8528
4720 1 0.566156 24.9168 20.8693
6567 1 0.286917 25.0962 18.8248
626 1 0.582775 25.8257 19.8452
821 1 0.531094 26.5051 20.6089
6720 1 0.232929 26.8469 19.7183
6729 1 1.41548 26.4677 20.0362
6695 1 1.0219 26.433 19.0409
6525 1 1.48073 26.6717 21.0229
6592 1 0.202288 27.1076 18.7317
877 1 0.0541849 26.1015 18.9352
6785 1 0.222481 23.0858 22.7756
6772 1 0.0965431 22.7081 24.3714
856 1 0.0679287 23.5527 23.6943
4915 1 0.441635 27.4136 22.1985
923 1 1.76023 26.8295 23.2699
29 1 1.49491 26.426 24.1798
6828 1 0.667556 25.1512 21.8171
67 1 1.11091 25.6437 23.1763
1702 1 1.98104 26.7505 22.2491
6919 1 0.441555 27.4712 23.2343
836 1 0.596964 26.4667 21.658
2812 1 0.577753 26.4486 22.6986
66 1 0.899074 25.4009 24.0719
166 1 0.457578 26.5107 23.9149
946 1 0.138424 25.2831 23.308
95 1 0.014957 23.584 24.8147
6948 1 0.410357 23.1902 27.0912
6522 1 0.232376 24.1886 26.7602
6993 1 0.970758 25.3359 27.3463
7058 1 0.928097 27.1071 26.0438
73 1 0.157913 26.4164 24.887
6015 1 0.160682 25.755 26.7748
76 1 0.787104 27.2321 25.0663
926 1 1.15859 25.4728 26.318
6950 1 0.697477 25.4466 25.0554
6983 1 0.27455 26.0307 25.7939
4537 1 3.78664 27.2672 27.3233
3044 1 13.0422 2.32283 0.519794
5132 1 13.0224 2.32669 2.93071
235 1 12.9627 2.19562 1.90708
3929 1 12.6604 2.99585 1.29348
7092 1 12.8419 4.02108 1.09613
5149 1 12.9475 3.5711 2.07725
5032 1 11.9794 4.49679 1.46225
7096 1 12.5578 5.07542 0.86662
5979 1 12.8934 4.84542 1.80204
2135 1 13.0985 4.51156 2.77995
3049 1 13.7311 5.35165 1.15576
3998 1 12.1495 4.40279 2.44832
4002 1 13.5569 3.2506 2.88227
5078 1 11.7054 4.80741 0.437032
5036 1 12.6698 3.51168 0.15558
2852 1 13.1942 4.47969 0.268448
4153 1 12.365 5.41482 2.48087
4052 1 13.7489 2.79366 1.14251
3050 1 11.6763 6.55086 2.23104
7182 1 12.4365 6.06744 0.604153
5276 1 12.3194 5.96105 1.60224
2265 1 13.3915 5.9933 1.92431
2058 1 12.876 6.77346 1.26907
6056 1 12.6847 6.66224 2.27906
2057 1 12.3801 7.19212 0.48734
333 1 13.3036 7.3795 1.91946
1910 1 12.3248 7.66804 2.38932
5091 1 13.4057 7.61485 0.872017
2203 1 13.2959 6.70345 0.220884
1103 1 12.404 7.66979 1.35765
2149 1 11.3675 7.72112 1.87888
2170 1 12.4519 8.20027 0.430293
1967 1 11.4299 7.39151 0.847372
3277 1 11.4846 7.91618 2.88162
1102 1 13.1561 7.3166 2.94673
7255 1 13.1903 6.00545 2.91494
1029 1 9.11902 10.8907 2.42617
1123 1 10.1789 10.5743 0.815033
4125 1 10.6508 8.68806 1.50261
1960 1 10.5199 10.7909 1.77627
3081 1 10.4997 10.8754 2.79555
1033 1 12.3019 9.24657 0.314949
3177 1 10.827 9.80443 2.28535
1062 1 10.5047 8.44962 0.538417
3032 1 11.5094 9.04764 2.02071
3926 1 10.5846 9.81695 0.223187
1114 1 11.346 9.27905 3.00561
1168 1 10.7933 9.83028 1.30597
4424 1 11.5228 8.92732 1.00878
3018 1 10.579 8.82751 2.47249
1970 1 13.3449 9.20589 0.624758
3948 1 13.2213 8.8098 2.31214
47 1 12.4661 10.3469 1.10386
7174 1 11.5846 9.9023 0.670401
92 1 12.8688 9.22245 1.47353
1130 1 11.6307 10.3134 1.63494
2226 1 12.5339 9.53344 2.33129
1124 1 11.7271 10.185 2.61768
1215 1 12.5914 10.5449 2.10231
2021 1 13.7623 10.1543 1.32161
3101 1 11.3166 10.9578 0.930524
250 1 12.7114 10.3032 3.0571
1138 1 11.2978 9.13346 0.0403006
1951 1 8.84921 11.0804 1.48741
3085 1 8.81109 11.0945 0.4601
1118 1 9.72128 11.9124 0.435074
3547 1 9.27419 12.137 2.45519
3329 1 9.6239 12.0622 1.52029
3197 1 10.264 12.5686 2.19311
2270 1 12.5468 13.3585 2.73389
3242 1 12.0875 13.1431 1.66553
3121 1 11.2152 13.7083 1.35846
3992 1 12.2019 11.2525 1.43515
1869 1 12.3565 11.1721 0.422984
1210 1 13.7541 11.51 2.8084
1140 1 10.4725 12.6709 0.970009
1173 1 13.6278 13.5652 2.99263
3082 1 10.8149 11.7351 2.00077
1190 1 10.5136 11.3761 0.0975334
1079 1 11.6219 11.2238 2.35851
2198 1 12.5998 11.3632 2.73203
35 1 13.2013 11.4055 1.97693
2191 1 13.5367 11.4665 0.98926
5282 1 10.4849 11.5531 1.09374
1185 1 12.4424 12.2187 2.153
3128 1 11.4965 12.3326 2.53819
54 1 11.5772 12.2318 1.51882
2041 1 13.2771 12.6447 1.54907
3102 1 13.2861 12.4991 2.60679
1027 1 13.2564 12.7416 0.518063
3932 1 12.4695 12.1726 0.906371
1049 1 11.2893 11.9889 0.489559
7022 1 12.9219 13.6964 0.614613
5031 1 11.4229 13.4129 2.3575
3145 1 11.8472 13.2479 0.638172
3176 1 13.5982 13.508 2.0106
1022 1 13.4112 11.0791 0.00409492
4059 1 13.2646 1.84703 3.79408
5234 1 12.8629 2.17139 4.68506
7392 1 12.7436 1.88093 5.70293
3419 1 13.6713 2.8129 4.7575
5246 1 12.3194 2.81029 4.14338
5227 1 12.5611 3.71529 3.08341
5243 1 12.0926 3.87058 4.12245
5196 1 13.1349 4.00543 4.73181
5374 1 12.2555 4.71827 3.40311
3325 1 13.2048 4.47851 3.85228
2329 1 12.4994 5.04283 4.43051
3248 1 12.6893 4.86232 5.44983
7337 1 12.1024 3.41167 5.06154
5279 1 12.7804 3.85846 5.76947
4103 1 13.257 2.87267 5.6589
3119 1 13.6441 5.28396 5.8859
5348 1 11.9523 3.38508 6.07622
4152 1 13.2813 3.38509 3.92244
5221 1 13.5096 5.01764 4.92226
2333 1 13.7094 7.33037 4.90561
278 1 13.3451 7.6345 4.0081
2138 1 12.4188 6.57984 3.21307
5240 1 12.9433 5.78622 3.89316
5079 1 13.079 5.94955 4.89007
4327 1 12.0686 5.78482 5.64966
2207 1 13.5884 6.53794 4.22974
3339 1 12.5347 6.83179 4.14148
4324 1 12.774 6.91387 5.0794
4163 1 12.3803 7.61061 3.50827
2292 1 12.3082 7.73987 4.54285
2496 1 12.3294 8.04293 5.56828
2311 1 13.1422 6.24342 5.83125
1139 1 11.479 8.23529 3.85784
1275 1 12.2547 7.0151 5.9393
2288 1 13.2667 8.24025 5.92363
280 1 11.4604 8.11334 6.06823
1325 1 9.9542 10.399 5.41056
3137 1 9.13875 10.9626 3.43376
103 1 10.2981 9.55849 5.97729
194 1 12.7516 9.20428 3.25852
1208 1 13.566 9.08306 5.35598
940 1 10.4514 8.5718 3.44895
1058 1 13.4578 8.30577 3.20921
1164 1 10.5197 8.35701 4.42929
294 1 11.5486 8.2923 4.92491
1329 1 10.5137 9.88548 3.29898
1070 1 10.4123 10.2161 4.27353
1160 1 10.9293 10.5842 5.07964
1113 1 10.5886 9.35858 4.96029
3353 1 13.1148 8.31895 4.92188
1059 1 11.0044 9.21955 4.02308
1375 1 12.914 10.5131 4.96042
3092 1 12.9376 9.84729 4.00947
1295 1 12.6838 9.51805 4.88194
1267 1 11.6178 9.8251 4.67528
3276 1 12.655 8.46128 4.0128
994 1 12.7216 9.25677 5.87477
1080 1 11.4853 10.0376 3.62942
2268 1 10.6284 8.40448 5.50209
2098 1 11.9558 9.95269 5.56276
2208 1 11.3679 9.09194 5.6657
1158 1 12.2736 10.5923 4.11287
186 1 13.622 9.12535 4.32251
1180 1 11.8326 10.9514 3.30133
3135 1 12.5375 10.874 5.91061
3343 1 13.6046 10.601 5.76673
3958 1 13.6991 10.9292 3.77547
3194 1 9.92927 12.2598 4.3893
2252 1 9.76867 12.3541 3.32067
3192 1 10.1366 11.1423 4.7762
3222 1 10.3221 12.5193 5.31609
146 1 9.20705 12.4128 5.03747
1060 1 8.93564 12.3228 4.09105
3291 1 10.2575 11.3313 5.76537
1106 1 10.2123 11.1388 3.74674
3292 1 9.40926 12.4415 6.01213
100 1 13.7061 12.3647 6.04482
3171 1 13.4842 13.5696 4.86448
1315 1 13.3691 13.4284 5.87294
3293 1 11.6904 13.5839 3.31372
3162 1 11.0216 11.7351 3.2568
3216 1 11.0471 11.6634 5.13655
3290 1 11.014 12.0897 4.21596
1170 1 13.0974 11.7577 3.56249
6145 1 12.3633 12.4514 3.13827
3184 1 11.1047 12.9424 5.82147
3174 1 11.6567 11.5141 5.94184
3238 1 10.943 12.7702 3.3802
1004 1 12.3015 11.5839 4.17317
193 1 13.2216 11.5975 5.55983
3114 1 11.3628 11.0288 4.23746
3112 1 12.9359 12.5873 4.51939
1239 1 11.9967 11.0919 5.03127
1112 1 13.1143 12.8769 3.54605
3227 1 12.7678 12.6001 5.52062
3116 1 11.1896 12.9708 4.79567
2236 1 11.9628 12.1554 5.0197
2196 1 11.8748 12.851 4.01978
3138 1 13.2753 11.5937 4.5903
3178 1 12.6704 13.6648 4.15558
5074 1 13.056 2.39954 6.58704
5392 1 13.6477 2.65227 9.11768
3333 1 13.1402 1.397 6.5479
5377 1 13.0122 1.87826 7.49605
6468 1 12.9229 2.39489 8.40576
5296 1 13.7506 3.76401 7.39082
3284 1 13.622 3.34071 8.34745
7396 1 13.5179 5.11301 8.87048
7487 1 13.1914 2.89023 7.46303
5327 1 12.4823 3.47704 8.86028
3187 1 13.5971 4.77082 7.93444
3323 1 12.8609 4.39257 8.53018
4256 1 12.7417 5.27307 6.4209
5482 1 12.7413 3.75084 7.83688
3279 1 11.8542 3.03373 7.07416
4351 1 12.758 3.49835 6.74557
5248 1 12.1357 2.97229 8.05109
2221 1 12.597 5.25813 7.44441
3327 1 13.5394 5.15105 7.00471
5284 1 13.6456 3.93074 9.1481
389 1 10.2173 8.19527 8.56217
1338 1 9.77565 8.10746 6.68565
3285 1 12.6158 5.56242 8.42967
4241 1 13.2504 7.18976 6.57906
4344 1 13.3331 6.18494 8.87703
2422 1 12.0109 8.26211 8.54638
2228 1 12.0253 5.9794 6.68541
2394 1 13.3133 5.96458 7.86152
2365 1 12.4818 8.15434 6.62466
2316 1 13.1691 6.14103 6.83706
2580 1 12.4053 7.25124 8.06312
3399 1 12.183 6.25285 7.69199
2263 1 13.2693 6.94598 7.5402
4460 1 12.0862 6.48985 8.66869
4366 1 12.3637 6.89976 6.94623
585 1 13.3184 7.21768 8.58626
3282 1 13.2396 7.95409 7.30151
1385 1 11.444 8.18508 7.09079
2528 1 12.4459 7.44299 9.0492
6589 1 10.0326 10.5397 7.53166
1194 1 9.82695 10.4699 6.53979
3395 1 9.71026 10.7969 8.4099
1328 1 10.1204 8.51222 7.58233
1303 1 13.0011 8.59212 8.83847
1280 1 13.775 9.12299 7.37311
3331 1 13.6296 10.4592 6.80059
3257 1 13.6996 11.0137 7.62364
289 1 12.4699 8.44738 7.7092
247 1 11.1202 8.62241 8.98871
1217 1 10.7294 8.73374 6.4508
348 1 11.0881 9.27552 7.26591
3541 1 11.0584 8.57273 7.99323
1235 1 11.3803 9.93237 6.50479
2274 1 12.4333 10.0619 6.52941
3231 1 12.8108 9.07943 6.94613
3206 1 10.683 10.1584 8.27734
3355 1 12.496 9.74534 8.36763
1430 1 12.091 9.63273 7.43733
398 1 12.8732 10.3229 7.50463
243 1 13.6264 9.25914 8.4006
1205 1 11.8599 9.00396 6.56444
349 1 11.4975 9.47002 8.31099
3493 1 13.2988 10.4326 8.43163
1363 1 10.27 13.447 8.07589
1384 1 10.0808 11.6085 9.02026
3281 1 9.68928 12.2609 6.97691
2458 1 10.1503 11.544 7.79601
3175 1 12.1601 13.7248 8.69868
1101 1 13.4056 12.4213 8.09906
2454 1 12.7629 11.4927 7.62579
3168 1 13.515 12.1906 7.10603
1387 1 11.4387 13.046 7.83697
3307 1 13.3418 11.4699 8.54758
1202 1 12.8644 11.5569 6.62244
3262 1 12.1846 11.2809 8.46811
3221 1 10.6562 12.4051 7.49999
3430 1 11.3121 11.8791 6.88539
3259 1 11.4338 12.9342 8.84585
1471 1 11.1891 11.0267 8.73239
3436 1 12.0552 11.0463 6.94292
1314 1 12.0754 12.3194 8.13495
3397 1 11.456 11.3051 7.74424
1396 1 10.4396 12.2391 6.32034
1362 1 10.3743 11.3655 6.83075
3286 1 10.5157 13.2333 9.09431
3381 1 12.3719 13.4785 7.67423
2247 1 12.7359 12.9444 6.50605
3498 1 12.2903 12.2218 7.13801
3429 1 13.2242 13.3878 8.43023
3247 1 11.2751 13.0219 6.83667
1257 1 11.8859 12.4357 6.24274
3256 1 13.3282 13.2268 7.36655
3356 1 10.5452 12.2997 8.44884
3442 1 11.9219 11.9952 9.13267
6414 1 12.319 2.23501 10.309
5539 1 13.0846 1.90515 11.0022
5328 1 12.1034 2.46456 11.2664
4469 1 12.9621 2.51518 11.769
3490 1 13.5945 1.62098 11.9254
5384 1 12.4519 2.46925 9.3055
7183 1 13.5593 2.11596 10.0001
3495 1 12.5141 3.42202 11.5436
5398 1 12.611 3.31626 9.93925
2467 1 12.9927 2.91148 10.8112
4403 1 12.5532 4.69218 10.5114
5399 1 13.071 5.32775 11.101
6171 1 13.369 5.19615 10.1053
2424 1 11.66 4.45862 9.80811
2323 1 12.673 4.21321 9.48547
6301 1 13.3792 4.00678 10.2178
5591 1 13.4101 4.79869 12.0317
4411 1 12.6735 5.44955 9.4124
6406 1 13.1292 4.2227 11.2013
4354 1 12.1117 5.62007 11.4534
3432 1 11.884 7.54407 11.2635
3548 1 13.195 6.35286 10.8944
2413 1 13.4232 5.87401 11.8036
5387 1 13.3167 6.40467 9.89709
2472 1 12.5901 6.74094 11.6141
2431 1 12.1508 6.82089 10.5859
4672 1 12.334 6.54457 9.63145
2576 1 12.5392 5.78014 10.3491
436 1 13.3407 7.93509 11.8946
1312 1 10.3653 8.15121 9.63983
1477 1 11.3201 8.18106 10.5462
1405 1 13.4343 7.95206 10.7871
3532 1 13.1919 8.12209 9.81139
1458 1 12.4062 8.18698 10.564
2626 1 13.6206 6.85947 12.0845
1374 1 10.1951 10.7192 9.528
1380 1 9.94699 10.6548 10.5191
1489 1 10.1031 10.2848 11.9437
1404 1 13.6567 10.7661 9.3104
3387 1 12.8971 10.0091 9.30921
1364 1 11.9226 8.34181 9.58857
3477 1 10.6271 10.1197 11.099
522 1 10.8471 10.2156 10.1556
1620 1 10.4295 8.66646 10.8068
3631 1 11.1305 8.37539 11.5235
1435 1 11.3156 9.32571 10.8797
1323 1 12.5276 9.71281 10.9871
1421 1 11.9324 10.0381 10.1198
493 1 12.1252 8.60232 11.4653
2481 1 13.5592 9.04783 10.4548
449 1 12.6538 9.25931 10.0884
1516 1 10.5189 9.2704 11.6589
1417 1 13.1158 9.94306 11.8404
3367 1 11.0473 8.93729 9.95778
1259 1 12.9481 10.3224 10.2582
3591 1 10.9006 10.8957 11.7173
3688 1 13.2793 10.6972 11.1556
3423 1 12.1192 10.8122 9.41379
1278 1 11.595 10.4554 10.9831
3679 1 11.5497 9.49622 11.8258
1569 1 13.1749 8.8732 11.3855
1577 1 13.7042 9.01651 9.40559
1470 1 11.8071 10.4872 12.1047
1457 1 12.0452 9.35784 9.25724
3316 1 11.0856 9.6989 9.2101
1330 1 10.1148 11.6337 10.0233
3435 1 10.2795 11.9307 10.9838
1379 1 9.86179 11.0929 11.4677
3486 1 10.1616 12.3449 11.9676
5536 1 11.126 11.1545 9.71795
3516 1 10.8694 11.1099 10.663
3366 1 12.8495 11.5689 9.42025
3364 1 12.7492 13.343 9.39263
2651 1 13.0784 13.3414 11.9523
7170 1 13.6261 11.1585 10.2312
1629 1 11.3202 13.124 10.8296
3678 1 11.2033 12.2206 11.4079
3392 1 11.225 12.0518 10.3727
1262 1 12.3023 11.9816 10.139
3382 1 13.0922 11.2861 11.9519
1390 1 10.815 12.3019 9.46415
3383 1 11.7808 11.5011 10.9863
3412 1 13.3072 12.2071 10.2853
3578 1 12.8899 12.31 11.8731
3424 1 12.794 11.7082 11.057
1550 1 11.6676 12.8431 9.90678
3322 1 13.134 12.9615 11.0007
1429 1 10.5996 13.0933 10.2204
2610 1 11.7285 11.5849 12.0707
4551 1 12.5268 13.527 10.3465
283 1 11.3984 13.0989 11.9304
1109 1 13.6887 12.206 9.26007
7374 1 12.2311 13.39 11.3417
5574 1 12.8899 1.65398 13.7841
3574 1 13.4372 2.60398 13.7454
7561 1 13.2584 2.02734 12.8087
3335 1 13.0531 1.4058 14.731
3529 1 13.1769 2.87726 14.6284
5544 1 12.3098 2.9645 12.4735
1447 1 11.8731 3.05095 13.3824
4253 1 12.3531 3.3629 14.2514
5621 1 12.9689 3.86516 12.3569
2552 1 12.8215 3.41629 13.26
2519 1 12.5807 5.33568 12.3693
5543 1 12.31 3.157 15.2196
4319 1 13.0361 4.68359 12.9755
3549 1 12.6901 4.97328 14.8918
2565 1 12.8738 4.57905 13.9742
580 1 13.7017 5.24155 14.7298
479 1 13.7455 5.09671 13.6799
6652 1 13.2779 4.1163 14.8034
2409 1 13.5698 3.75682 13.9424
339 1 12.1852 7.67363 12.2554
5373 1 11.9328 6.18335 12.2743
2613 1 13.7121 6.22731 15.0381
1501 1 13.3328 7.38252 14.4722
2328 1 12.123 5.84014 13.255
385 1 13.2607 6.17996 13.1115
6476 1 13.7242 6.50046 14.0823
365 1 12.5605 6.71011 13.7146
2466 1 12.6937 5.77435 14.2498
2417 1 13.4323 7.20315 13.4444
1415 1 11.7356 6.77886 13.1219
484 1 12.7136 6.92462 12.6798
570 1 12.5478 6.75585 14.7382
3523 1 11.5521 6.61232 14.1115
487 1 11.5917 6.39798 15.2037
6237 1 12.6765 5.91146 15.3059
3422 1 12.077 8.00616 13.2384
1462 1 11.7663 7.39174 14.8934
630 1 12.9518 8.20608 14.9838
1359 1 13.0693 8.01367 12.9172
2301 1 7.14249 9.7273 12.8955
1434 1 10.1113 9.38656 12.5597
3671 1 10.0967 9.4861 14.6256
3582 1 10.3217 10.323 12.9596
3628 1 10.0639 10.3197 13.9557
3667 1 10.3079 10.462 14.9417
2564 1 12.8785 8.30256 13.8832
3590 1 10.5247 9.49151 13.5175
3538 1 11.2113 9.35628 14.3884
3306 1 11.3971 8.91995 13.4105
3428 1 11.601 8.62357 12.4095
3472 1 10.458 8.65516 14.0062
1521 1 10.7212 8.61198 14.946
659 1 11.071 9.60453 12.6886
497 1 13.2588 10.4528 12.6868
2401 1 12.7413 8.76252 12.2742
1507 1 12.168 9.38471 12.7721
3531 1 11.8221 8.30863 14.2477
434 1 10.4919 8.27194 12.3765
3372 1 13.0828 9.10296 13.2341
1503 1 13.166 9.13556 14.4064
3573 1 13.6313 10.0587 14.3857
3561 1 12.2294 9.0454 14.8609
3517 1 12.2061 9.37523 13.87
1609 1 11.3069 10.3982 14.5442
3588 1 12.1416 10.5143 13.0424
1670 1 12.2118 10.1779 14.9894
3571 1 11.2536 10.1981 13.5717
3633 1 12.3752 10.3802 13.9886
445 1 13.307 10.8639 13.7131
1480 1 11.2189 11.0007 12.8397
499 1 13.7742 9.82506 13.3414
1535 1 10.2097 12.1472 12.9978
3717 1 10.0695 11.4025 14.4784
3697 1 10.181 12.3216 15.0405
2503 1 10.1461 11.1816 12.4716
3414 1 10.0355 12.2204 13.942
3662 1 12.6217 13.4544 15.1588
1525 1 10.3965 13.1696 14.4677
3616 1 13.6935 13.5009 15.2497
3597 1 11.2757 11.1795 15.2848
1425 1 10.3383 11.2391 13.527
3416 1 11.1011 13.4165 13.783
3644 1 11.4303 13.6144 15.1329
3526 1 11.7709 13.0648 12.9027
3543 1 12.5033 13.2139 13.6603
2601 1 11.0477 12.2336 12.4763
400 1 13.1711 12.3462 13.5972
1319 1 12.812 12.8377 12.8154
3674 1 11.1885 12.3259 13.5045
3463 1 11.325 11.2328 13.8245
3693 1 13.1838 13.0433 14.4172
3699 1 11.9726 11.8046 13.0202
2597 1 12.9907 11.8129 12.7758
644 1 13.6523 11.0308 14.7706
3604 1 12.3224 12.0032 14.0011
3504 1 11.9976 11.1731 14.5643
2451 1 11.2495 11.9821 14.5291
279 1 13.2316 11.9919 14.571
1543 1 11.8895 12.9282 14.5803
3607 1 12.3238 12.0259 15.0691
3630 1 12.7929 2.42666 16.5496
4753 1 13.0444 2.55522 15.5627
5747 1 12.7592 2.44901 17.5529
3599 1 13.5202 5.30851 17.754
3589 1 13.7077 4.21665 17.7908
5598 1 13.6885 3.33712 15.4188
6633 1 12.2015 3.24387 16.2046
3499 1 13.2913 3.32575 17.6959
3783 1 12.2471 3.76645 18.0765
5637 1 12.1072 3.72997 17.1066
3577 1 12.7696 3.96039 15.6831
3695 1 12.805 4.34451 16.6571
2506 1 12.4581 4.62602 17.5483
5542 1 13.3814 3.3521 16.3878
4559 1 12.6696 4.98299 15.8561
6606 1 13.7438 5.31922 16.7738
5636 1 12.3559 5.29411 16.7929
2475 1 13.6749 5.50607 15.7111
4451 1 12.231 5.60256 17.9764
4581 1 13.6535 7.56166 17.3657
2465 1 13.5842 6.52067 16.9498
4780 1 13.2322 7.3714 15.4397
4414 1 11.7914 6.34154 17.2907
3637 1 12.9834 6.00985 16.3387
2583 1 11.628 6.37128 16.2599
478 1 13.0702 6.82465 17.9792
3648 1 12.2966 6.90345 15.7463
778 1 12.6165 7.51146 17.3685
2642 1 11.3735 7.28158 15.8515
3826 1 11.5247 7.19591 17.8444
1576 1 13.1668 7.32875 16.474
1557 1 12.2165 7.88536 16.5293
3721 1 11.5183 7.21853 16.8477
1464 1 11.8626 8.15005 17.505
3732 1 9.96583 9.69366 18.0671
760 1 9.67808 10.5616 16.4264
1604 1 9.64616 10.5376 17.4261
3789 1 10.2232 10.7264 18.25
5676 1 13.2251 10.818 17.5913
3666 1 13.6071 10.2694 16.6662
5841 1 12.1648 10.9075 17.5496
3786 1 12.1988 8.78278 18.3198
698 1 10.8234 9.50749 15.4678
7565 1 13.0175 8.32652 17.9512
1567 1 13.0227 8.27759 16.013
6137 1 13.0776 9.16065 15.397
2646 1 13.371 9.62785 17.4529
3618 1 10.6932 9.59122 16.5017
3572 1 10.8079 8.73855 17.0687
3581 1 11.6889 8.79565 16.6381
3537 1 12.0678 8.27276 15.5816
738 1 11.2541 8.90149 17.9376
1564 1 12.8761 10.0662 18.2189
1412 1 13.1844 10.4576 15.408
1520 1 11.8025 9.29767 15.7692
1775 1 12.4518 9.05298 17.4029
789 1 12.5703 10.0648 16.9765
1624 1 12.7615 9.18703 16.3747
1575 1 10.935 8.54669 16.0253
1614 1 13.2506 8.44406 16.9688
1669 1 11.6502 9.80317 16.8148
1562 1 11.9644 9.84856 17.7891
1475 1 10.8293 9.71452 17.4379
7564 1 12.4079 10.1145 15.9891
1504 1 10.6726 10.4974 15.8876
3659 1 12.9139 10.9091 16.3556
3691 1 10.6258 10.7034 16.89
3555 1 11.204 10.6906 17.8032
3612 1 11.8436 10.812 16.5695
2791 1 10.0872 13.3388 16.8044
3488 1 10.2256 12.2641 16.0308
3817 1 10.0418 12.3963 18.0189
3608 1 9.57887 11.4794 17.9442
3784 1 10.1293 11.3911 15.5044
2710 1 9.82484 11.4835 16.9293
3736 1 11.3865 13.4358 17.43
1513 1 13.2834 12.5655 15.3905
3656 1 11.0922 13.1761 16.4598
3890 1 12.3022 13.1433 17.9707
1630 1 13.2872 12.426 16.5121
2754 1 10.4184 13.591 17.8772
1539 1 11.2244 12.184 15.5692
1790 1 11.422 12.2258 16.5668
3689 1 10.9403 11.4137 16.2691
1635 1 12.3327 12.9279 16.9684
1740 1 11.7474 12.3434 17.63
3701 1 12.8165 13.3826 16.1645
610 1 11.8982 12.8879 15.8148
3458 1 12.2382 11.0271 15.5917
3782 1 12.5624 11.9409 16.0816
3729 1 10.8677 11.7749 18.2213
3778 1 10.4022 13.3999 15.4991
3527 1 13.319 13.3809 17.0906
3799 1 10.6631 12.5994 17.1996
1590 1 11.0817 11.5747 17.2564
1700 1 13.2708 13.39 18.1194
3776 1 12.7701 11.6258 18.0922
805 1 13.0813 12.478 17.565
3686 1 12.7921 11.6413 17.018
4701 1 13.4685 2.02745 19.9213
5994 1 13.361 0.60418 20.0004
3730 1 13.444 2.19254 20.8959
3685 1 13.0434 2.68336 18.5213
5776 1 13.6915 2.02355 18.9153
5882 1 12.2255 3.65275 21.1418
5876 1 13.1427 3.90557 20.5406
5647 1 12.159 3.7678 19.1264
3675 1 12.2242 3.86613 20.1339
3724 1 12.1727 4.71748 18.5271
2507 1 12.3619 4.66692 19.5224
2829 1 12.0985 4.66568 20.7651
6902 1 13.3194 4.25314 19.5919
4904 1 12.9901 5.02348 20.289
5689 1 13.2838 3.69314 18.6766
3734 1 12.9481 4.81034 21.2878
3785 1 13.6308 3.0649 19.4309
3899 1 13.6887 3.4674 21.3513
4604 1 13.486 5.33512 19.4136
2560 1 13.3196 4.77629 18.5858
1703 1 12.2315 7.66785 18.3799
2856 1 11.9797 5.5185 20.2462
640 1 12.3248 5.74102 19.019
5891 1 12.7181 6.10257 19.8589
1588 1 13.0485 5.85343 20.8971
1708 1 11.6583 6.5302 19.5135
3875 1 12.7407 6.73752 18.95
5748 1 12.8215 7.27206 21.004
3017 1 12.976 7.22608 19.8458
3621 1 11.1675 7.05685 20.2083
2728 1 12.0169 6.48613 20.5694
2868 1 11.2163 7.05612 21.2023
3614 1 11.183 7.22072 18.8518
4711 1 12.3765 7.96912 20.3253
4606 1 11.9879 7.97669 19.2926
4616 1 12.2437 8.24481 21.2733
4603 1 13.3355 5.94899 18.5702
4754 1 12.0484 5.63843 21.2413
2807 1 13.6796 6.67728 20.4416
1920 1 13.5037 8.02698 20.2524
847 1 10.9814 7.8971 19.6121
885 1 11.42 7.94328 20.6332
3733 1 11.8316 6.45247 18.4659
1500 1 13.6346 6.37262 19.4096
1868 1 10.1971 10.0833 19.0364
3781 1 10.2796 8.28136 20.4143
1602 1 9.99671 10.4631 19.9674
3692 1 9.90755 10.9475 20.8177
3716 1 10.9397 9.67903 18.5614
769 1 13.2398 8.37303 18.9197
3522 1 11.4377 10.5237 19.2801
3626 1 12.0765 9.75234 18.8045
1656 1 10.5147 9.70621 20.5655
1725 1 11.531 8.67965 19.9069
1707 1 11.5326 8.96971 20.9517
1565 1 12.4215 8.86696 19.396
3714 1 12.562 9.06839 20.4355
1834 1 12.945 10.0403 19.1729
1815 1 12.2829 10.0614 20.751
3861 1 10.9054 9.65496 19.6006
2636 1 13.3872 10.2404 20.118
1807 1 13.2788 8.4526 21.2031
1617 1 13.5488 9.39034 18.6057
5626 1 11.3919 8.77623 18.9198
1651 1 13.5109 9.20289 19.7453
1679 1 11.1559 10.3163 21.1531
3752 1 12.0652 9.80137 19.8011
3824 1 13.1795 10.3401 21.3505
1853 1 12.4165 9.29184 21.4369
2905 1 11.0348 10.5032 20.1699
1822 1 13.4227 9.44212 20.8442
1745 1 11.9904 10.8212 18.5446
646 1 13.5354 11.0119 18.4967
1814 1 10.2201 12.6163 19.6476
669 1 9.73128 11.6885 19.0223
3818 1 9.77392 11.781 20.1358
3881 1 10.2363 12.5418 20.7526
3795 1 11.5761 13.5069 20.3765
1611 1 10.5194 11.0285 19.2035
1728 1 10.5413 13.4139 20.3205
3642 1 11.08 12.3244 20.1486
3800 1 11.1329 12.1636 19.1483
3687 1 12.0569 12.367 18.6119
4522 1 11.4532 12.3709 21.0649
3791 1 11.9213 11.0327 20.0244
3731 1 12.0099 12.5877 19.6168
3831 1 11.0601 11.3469 20.9886
2702 1 12.656 11.8533 20.1022
2752 1 12.2021 13.4516 18.9647
1720 1 12.4558 11.5005 19.1635
1779 1 12.4349 12.7344 20.6002
3884 1 12.0874 11.5894 20.9104
3632 1 13.4218 11.7442 19.2944
1657 1 13.0474 13.5902 20.8497
3611 1 12.5424 13.4708 19.9379
3807 1 13.0376 11.9701 21.0341
5612 1 13.126 12.7099 19.6084
1759 1 13.0744 12.4674 18.6227
3878 1 11.1529 13.1288 19.4719
2796 1 13.7336 13.1765 18.9846
1795 1 10.3777 13.0825 18.7682
3769 1 11.3189 13.1491 18.4186
6925 1 13.7244 1.82594 24.3363
5781 1 13.7218 3.49717 23.4787
2659 1 12.7283 4.79358 23.392
5022 1 12.4984 3.24729 22.0926
3825 1 12.7821 3.20307 23.0997
5962 1 12.8659 3.36089 24.1408
7799 1 12.0304 4.68758 21.7783
5892 1 11.9357 4.52748 22.7631
5997 1 13.4785 3.39705 22.353
5942 1 11.7079 4.62699 23.7448
3991 1 12.9018 4.62757 22.3741
2915 1 12.4594 5.05847 24.3061
5831 1 11.8992 5.50506 23.2328
5037 1 13.5597 4.66368 24.0676
5600 1 13.677 6.89076 21.4551
3767 1 11.1791 7.28146 23.2503
2758 1 13.2932 7.94826 22.809
5771 1 11.9391 5.7403 22.2525
5587 1 12.9026 5.86069 23.8449
2879 1 12.3042 6.63367 21.5806
4666 1 12.0609 6.70028 23.5782
868 1 12.0619 6.78302 22.5447
2853 1 12.9081 7.39904 22.0113
2010 1 12.2395 7.72762 22.8707
824 1 11.8443 7.52637 21.9232
5844 1 11.9369 5.90732 24.1837
3924 1 12.8865 5.58285 21.9006
2060 1 13.0255 6.95622 23.2601
722 1 10.9058 7.26506 22.2132
7860 1 10.9121 7.76809 24.182
2820 1 12.8111 7.98289 23.8031
815 1 12.8951 6.82263 24.2491
2721 1 12.7084 6.03221 22.8773
4957 1 13.6901 6.9744 22.443
1867 1 11.1418 8.16724 21.5692
1824 1 11.2774 8.13508 22.5695
1663 1 9.7951 10.9198 21.8776
82 1 10.0608 9.91948 22.5153
1875 1 9.68089 10.4082 24.4331
3726 1 9.72564 10.3556 23.4091
7829 1 10.1342 10.0667 21.4801
1864 1 13.6215 9.56507 24.4964
2673 1 11.6617 8.32658 23.5708
1878 1 12.0103 10.235 21.722
3943 1 11.4249 9.28746 23.9281
2793 1 10.6296 8.63954 23.7171
1969 1 12.3313 9.5448 22.4166
2886 1 11.701 8.86807 21.966
7913 1 12.2845 9.72526 23.4568
1905 1 12.5 8.75098 23.091
1778 1 12.0692 10.774 23.6979
3083 1 13.4194 10.1925 22.5242
1018 1 12.4326 10.1137 24.38
1809 1 12.7379 8.57348 22.1357
3975 1 10.9948 10.1226 23.1778
2902 1 13.3903 8.91339 23.727
1850 1 11.534 9.19522 22.8818
843 1 10.5492 9.89221 24.0838
1889 1 11.377 10.4991 24.3768
624 1 11.0723 10.1312 22.1605
3836 1 11.9859 10.4263 22.7639
3900 1 12.4004 8.83315 24.2131
1907 1 13.4899 10.139 23.6106
1924 1 13.4258 10.907 24.2773
3938 1 13.3904 9.37769 21.8327
970 1 13.4888 8.9586 22.7642
2909 1 9.88254 11.8329 21.4919
1718 1 9.2854 11.7432 22.3923
3912 1 10.0771 11.1599 22.8891
1819 1 9.48466 11.3373 23.9935
3894 1 10.2792 12.1528 24.0891
3068 1 9.7099 12.0823 23.2649
3928 1 10.1406 12.4113 22.3753
1940 1 12.7376 13.746 22.3494
3751 1 12.7596 11.282 21.6725
1945 1 10.6749 12.8718 21.5641
1724 1 10.5829 11.1447 23.7494
1877 1 10.7749 12.0999 23.213
3872 1 11.8498 13.1886 22.389
5927 1 12.73 13.052 21.629
2947 1 13.6995 11.155 22.2452
1068 1 11.2082 12.3679 22.2356
1615 1 11.6274 11.2412 21.9172
2836 1 13.6859 11.1225 23.2578
1825 1 11.9839 12.7714 23.4916
5972 1 13.0754 13.119 23.1551
1715 1 10.6672 11.4236 21.9497
3852 1 11.9494 11.9783 22.8681
1820 1 11.1364 11.1651 22.8378
3061 1 13.0077 12.4047 22.4652
3877 1 12.2214 12.1559 21.8497
1763 1 11.3025 11.8132 24.0693
3668 1 12.764 11.1945 22.731
3080 1 13.6634 11.8418 23.9664
3931 1 12.3644 12.1314 24.3043
1830 1 12.8509 12.009 23.4132
3901 1 10.9698 13.1536 23.0653
3011 1 11.1113 12.8413 24.0846
1813 1 13.2031 12.6907 24.107
3978 1 12.0922 13.4868 24.2805
1989 1 13.6574 12.5757 21.6501
5977 1 13.6392 2.65473 25.0226
5148 1 13.2633 2.69279 26.0307
2119 1 12.5655 5.21318 27.3654
5135 1 13.7426 4.35543 25.9169
3865 1 13.0705 3.36549 26.763
4102 1 11.5291 5.1622 24.7822
4008 1 12.7058 4.15005 25.9125
3090 1 12.777 4.31219 26.9061
7989 1 12.5575 5.07404 26.3104
5929 1 11.6696 5.24423 26.845
6712 1 12.5021 5.07838 25.3221
5090 1 11.6393 5.29491 25.7994
6956 1 13.1138 3.57905 25.1012
3848 1 13.3717 4.62042 24.9971
40 1 10.2434 8.16539 26.2118
2007 1 13.5698 6.68464 26.6167
5080 1 12.7204 6.12955 26.1779
2068 1 13.3133 5.70326 26.9085
4919 1 13.6925 6.41811 24.944