ITEM: TIMESTEP
90000
ITEM: NUMBER OF ATOMS
8000
ITEM: BOX BOUNDS pp pp pp
0.0000000000000000e+00 2.7564674686161492e+01
0.0000000000000000e+00 2.7564674686161492e+01
0.0000000000000000e+00 2.7564674686161492e+01
ITEM: ATOMS id type x y z
75 1 0.779376 1.8112 0.34395
2078 1 0.665581 1.70631 2.2542
2028 1 0.657277 1.77277 1.31228
25 1 1.55318 1.17639 0.801904
39 1 1.49856 1.21511 1.78347
2114 1 1.59572 1.16879 2.73192
1102 1 1.35065 2.60993 0.868221
1152 1 1.26897 2.56867 1.77554
241 1 1.26776 2.55357 2.77123
2966 1 0.295607 0.979511 0.799594
69 1 0.303408 0.783456 2.72447
19 1 0.223888 0.946857 1.76586
2113 1 2.44738 0.651678 2.23822
3992 1 2.44101 0.659916 1.29053
2108 1 2.32978 0.783964 0.33381
2057 1 1.06682 0.34678 2.21743
2018 1 1.01443 0.38949 0.328369
2017 1 1.04787 0.388351 1.28979
5136 1 3.27956 0.354094 1.75774
2010 1 3.31181 0.344295 0.81405
4153 1 3.29747 0.285115 2.71508
3170 1 6.55126 0.790697 2.67784
5061 1 6.60851 0.835511 0.813521
5116 1 6.72757 0.851034 1.7612
188 1 0.52273 3.14069 1.35103
182 1 0.580406 3.12803 0.444946
137 1 0.598752 3.11065 2.322
36 1 1.8606 3.30477 0.34832
191 1 1.96526 3.28862 2.32176
146 1 1.92819 3.31927 1.30965
6950 1 1.14448 3.8344 0.874878
7955 1 1.12737 3.84788 2.78728
7905 1 1.14107 3.78944 1.82316
6898 1 0.348926 4.3117 0.421119
6999 1 0.268073 4.31119 2.33607
7000 1 0.28713 4.24572 1.37696
3058 1 6.46177 2.98955 1.28531
3014 1 6.29929 2.90308 0.342241
3113 1 6.5367 3.04304 2.27233
1057 1 1.78693 13.5472 2.21655
1901 1 1.68768 13.3725 0.307648
1956 1 1.7267 13.4878 1.26106
2156 1 1.15789 0.342697 6.02211
2158 1 2.36948 0.703158 3.20522
2119 1 0.289882 0.78418 3.65248
2069 1 0.727123 1.60807 3.22625
2264 1 0.796522 1.48817 5.11283
2368 1 0.759674 1.54574 6.03155
2313 1 0.794508 1.64386 4.19556
2166 1 1.55605 1.20132 3.69824
2170 1 1.67378 1.05902 4.62457
2214 1 1.63832 1.10823 5.56437
292 1 1.45058 2.3627 5.57314
298 1 1.30907 2.42275 3.72518
1253 1 1.46762 2.48163 4.64324
2061 1 0.271194 0.80674 4.61741
2162 1 0.192292 0.807282 5.58643
2157 1 2.64648 0.791598 5.09307
4157 1 2.47323 0.72766 6.01777
2065 1 2.54123 0.701061 4.12768
2160 1 1.10262 0.398551 5.07585
2112 1 1.11077 0.321071 4.13055
2164 1 1.06311 0.24723 3.16979
2260 1 3.36068 0.255118 4.62297
2210 1 3.3231 0.230417 3.66477
4352 1 3.37388 0.325783 5.5377
5066 1 6.6079 0.848679 3.61149
2144 1 6.62438 0.783465 5.50043
2200 1 6.59623 0.949689 4.57076
6050 1 0.0889593 4.31369 3.27939
1001 1 0.187105 4.27704 4.21486
186 1 0.520419 3.09788 3.30432
236 1 0.587922 3.00206 4.22821
128 1 0.61797 2.97909 5.16554
1303 1 2.02151 3.21369 6.06091
6198 1 1.93599 3.24948 5.12718
348 1 1.96568 3.50678 4.20428
192 1 1.9416 3.30621 3.2609
6145 1 1.16541 3.88576 3.71338
7314 1 1.1691 3.85639 5.63041
6094 1 1.14435 3.81765 4.66605
1106 1 0.23207 4.13355 5.2321
226 1 0.775483 3.04737 6.06322
3111 1 6.36807 3.03539 5.08652
1055 1 6.47382 2.98065 3.18998
3101 1 6.43037 3.01615 4.14802
2293 1 6.44305 3.10868 6.01443
7005 1 1.6901 13.4471 3.17299
1108 1 1.512 13.2781 6.01464
1008 1 1.56955 13.3968 4.09828
1103 1 1.55619 13.3785 5.06316
2257 1 1.10047 0.26965 7.94386
2207 1 1.05737 0.30263 6.9596
2253 1 2.45877 0.727297 7.93277
2252 1 2.41767 0.7262 8.88896
4316 1 1.69171 1.13303 6.49925
2268 1 1.62785 1.04596 8.41231
2206 1 0.814342 1.42703 7.89354
2363 1 0.89134 1.59999 8.80127
2179 1 0.832691 1.54182 6.9546
2315 1 1.67142 1.16232 7.44289
346 1 1.51349 2.52477 7.47101
283 1 1.54316 2.38859 6.51538
6440 1 1.34769 2.34823 8.39482
277 1 0.248584 0.734754 6.52225
2161 1 0.245638 0.767656 8.41775
2364 1 0.264995 0.668061 7.4772
2154 1 2.46247 0.743914 6.99462
2262 1 1.09945 0.302522 8.87648
4167 1 3.36072 0.323421 6.50135
2255 1 3.35212 0.239437 7.4467
4257 1 3.23421 0.314266 8.38731
2300 1 6.7142 0.784885 8.34217
2145 1 6.62202 0.745185 6.45584
4247 1 6.65432 0.780349 7.39586
1352 1 2.21169 3.23486 7.92429
237 1 0.700708 2.87243 6.97129
6300 1 0.208709 4.04078 8.21732
6394 1 1.07558 4.41753 8.84302
1304 1 1.09603 4.51104 7.87628
392 1 0.581198 2.83494 8.85827
1408 1 2.18111 3.02954 8.88036
398 1 1.34613 3.61281 7.46713
1201 1 0.226108 4.0988 6.2501
343 1 1.2761 3.80671 6.56644
246 1 0.258054 3.99479 7.2488
1353 1 2.13955 3.16178 6.97809
6250 1 0.679643 2.93432 7.9373
6345 1 1.33887 3.53299 8.42411
3309 1 6.48402 3.04339 8.87629
3303 1 6.37592 2.98408 7.92612
2297 1 6.42821 3.07714 6.96034
1202 1 1.48486 13.2241 6.9839
1208 1 1.62404 13.3596 8.89539
1207 1 1.50105 13.3562 7.95452
2362 1 0.842678 1.54241 11.6844
2418 1 0.877995 1.64618 9.80478
2366 1 0.830645 1.61236 10.7444
2415 1 1.62967 1.21207 10.2743
2512 1 1.72716 1.25563 12.1651
2465 1 1.65831 1.19501 11.2276
1402 1 1.39686 2.39046 9.31652
397 1 1.37459 2.3626 10.3254
447 1 1.4082 2.37995 11.2641
2365 1 1.58174 1.0825 9.34171
269 1 0.302066 0.757628 9.37608
2266 1 0.346331 0.804638 10.2931
442 1 1.35265 2.3116 12.204
2411 1 0.261907 0.797843 12.1765
2371 1 0.309888 0.835482 11.2207
2358 1 2.48576 0.729572 10.7397
2405 1 2.49589 0.693649 11.6714
2369 1 2.4164 0.766663 9.81508
2413 1 1.07392 0.300235 11.6923
2408 1 1.121 0.278067 9.79969
2314 1 1.15168 0.363033 10.7535
4418 1 3.30729 0.205379 9.36118
4457 1 3.39369 0.393599 11.2378
4462 1 3.28667 0.341951 12.1802
4463 1 3.43096 0.332715 10.3056
4396 1 6.62111 0.873882 11.2139
5511 1 6.66418 0.926954 12.1401
4296 1 6.67938 0.873158 9.29674
3355 1 6.58027 0.858049 10.2439
437 1 2.15564 3.06142 11.7723
6435 1 2.22543 2.86792 9.8571
387 1 2.1595 2.92271 10.8145
537 1 0.779576 3.04606 11.6429
482 1 0.691474 3.06144 10.7307
432 1 0.703728 2.93999 9.80459
6395 1 1.44944 3.60537 9.33492
6400 1 1.46176 3.66462 10.2872
446 1 1.51642 3.602 11.2323
441 1 0.917872 4.4022 10.7498
6382 1 1.05838 4.51357 9.79682
6490 1 0.960162 4.36686 11.6744
496 1 1.48767 3.65476 12.185
342 1 0.126467 3.8323 11.129
337 1 0.227701 3.81428 10.1587
1452 1 0.179734 3.74948 12.0712
7253 1 0.226585 3.98104 9.19179
3358 1 6.48294 3.02224 9.83109
3456 1 6.42663 3.03363 10.7651
3409 1 6.45482 3.16767 11.6926
443 1 1.68523 13.5613 11.7002
1306 1 1.7286 13.5858 9.81873
334 1 1.70904 13.5973 10.7522
2564 1 3.26377 0.168504 15.0741
4502 1 3.31256 0.299467 13.1151
510 1 1.03641 0.247163 13.6263
2504 1 2.44272 0.710186 14.5778
2422 1 0.256884 0.862682 15.0225
2517 1 0.853641 1.6186 14.5869
2469 1 0.779045 1.57863 12.6461
2519 1 0.769551 1.59338 13.6321
2406 1 1.61655 1.20709 13.1241
2404 1 1.60582 1.17013 14.0778
2619 1 1.59735 1.1348 15.0179
492 1 1.38172 2.32517 13.1721
546 1 1.41865 2.36519 14.0969
582 1 1.37079 2.39194 15.0305
2461 1 0.1565 0.852561 14.0729
2412 1 0.305853 0.802319 13.1222
2459 1 2.45351 0.678135 13.6074
2463 1 2.46761 0.696779 12.6708
514 1 1.00579 0.364753 14.5576
3541 1 1.03029 0.276703 12.6398
4511 1 3.30041 0.196038 14.1213
3569 1 6.67697 0.814843 14.0781
3615 1 6.73621 0.842373 15.0322
3514 1 6.65426 0.847218 13.1136
488 1 2.14607 3.04728 12.7196
542 1 2.03226 3.0188 13.7055
596 1 2.03171 3.05021 14.6249
588 1 0.826329 3.04948 14.5275
533 1 0.796718 3.03838 12.6165
622 1 0.794882 3.06305 13.5781
547 1 1.42211 3.75118 14.1177
497 1 1.46915 3.68317 13.1447
1551 1 1.3831 3.75699 15.0724
7507 1 0.672125 4.31264 14.5346
6494 1 0.802805 4.39474 13.5379
6540 1 0.893118 4.3799 12.6033
1503 1 0.10323 3.73744 13.0445
489 1 0.0782613 3.62795 13.9891
3504 1 6.51936 2.99744 14.5893
3460 1 6.4786 3.03335 12.6717
2500 1 6.50505 3.08869 13.6359
493 1 1.66981 13.6383 12.6614
487 1 1.66186 13.6932 13.5776
593 1 1.61646 13.6022 14.5328
2626 1 0.277942 0.887777 15.9966
4706 1 3.12309 0.163325 17.0193
560 1 0.987184 0.311435 15.4964
2606 1 1.06375 0.268149 16.444
660 1 1.07678 0.33018 17.4273
2567 1 1.60363 1.17296 15.9822
790 1 2.08555 1.81565 17.4077
620 1 0.762375 1.6197 16.4734
2563 1 2.14501 1.87599 15.4821
570 1 2.08891 1.87673 16.4759
2472 1 0.84024 1.64063 15.5174
2518 1 0.785676 1.6343 17.4379
714 1 1.54424 1.08557 16.9492
729 1 1.50425 1.10372 17.9016
6644 1 1.28007 2.33259 16.9521
647 1 1.30037 2.42104 15.9974
696 1 1.37538 2.36566 17.8876
3545 1 2.3972 0.677451 15.5184
2509 1 2.38735 0.728021 16.4772
2559 1 2.30575 0.708037 17.4513
2615 1 3.18216 0.209467 16.0607
3750 1 3.23632 0.356254 17.9284
2561 1 0.20178 0.890448 17.8746
625 1 0.309778 0.840467 16.9602
2731 1 2.06763 1.83454 18.3736
5621 1 6.52958 0.828225 17.8801
4593 1 6.73232 0.912847 15.9927
5522 1 6.69722 0.872253 16.9449
5662 1 6.82254 2.2317 17.9079
638 1 0.619216 3.02346 16.4645
1709 1 1.99621 3.21846 17.4589
691 1 1.36321 3.71232 16.009
1658 1 1.2732 3.8227 17.8939
7565 1 2.04694 3.02413 15.5832
690 1 0.672569 3.07069 15.4749
796 1 0.736781 3.13136 17.4152
7503 1 0.712847 4.30833 15.5172
7605 1 0.579149 4.40391 17.4656
1652 1 1.2564 3.79573 16.9588
1552 1 0.631826 4.39889 16.486
1659 1 1.9484 2.99847 16.5474
792 1 0.76634 3.07885 18.3647
3609 1 6.46223 3.1045 18.3678
2648 1 6.51345 3.00965 15.5147
3654 1 6.42907 3.12289 17.4304
3554 1 6.46601 3.03746 16.4925
1501 1 1.56167 13.5669 17.3895
587 1 1.41004 13.6425 16.4469
1504 1 1.51705 13.6028 15.5015
1603 1 1.75319 13.5553 18.3164
2721 1 2.14578 1.84821 19.3068
2673 1 0.651725 1.71046 19.3616
2761 1 0.736289 1.69525 21.2889
2766 1 0.69207 1.77975 20.3103
2808 1 1.63402 1.34596 20.7465
2676 1 1.4965 1.28045 19.8418
2621 1 1.4955 1.09486 18.909
1701 1 1.34657 2.38398 19.7885
1651 1 1.33239 2.35473 18.8178
6750 1 1.52129 2.35421 20.7439
785 1 0.281505 0.921424 20.7515
2666 1 0.289943 0.827198 18.85
2611 1 0.327396 0.837095 19.7987
2814 1 2.52138 0.731826 21.2274
2763 1 2.51529 0.903012 20.308
2664 1 2.56833 0.902004 19.3511
2712 1 1.11623 0.468717 21.2364
715 1 1.09061 0.249891 19.3757
669 1 1.13676 0.449737 20.2997
2755 1 3.36163 0.416333 19.8112
2860 1 3.34877 0.448566 20.7488
2705 1 3.33537 0.367251 18.8681
2751 1 1.93544 0.000131699 19.8187
710 1 1.05968 0.355053 18.3989
2667 1 1.9865 0.0443311 20.75
2663 1 2.39405 0.754103 18.3915
2627 1 0.692447 1.6241 18.3948
3718 1 6.53471 0.954248 19.7451
5761 1 6.51759 0.950825 20.7254
3669 1 6.53704 1.02424 18.8043
896 1 0.718787 3.0389 20.2872
6794 1 0.658237 3.11295 19.3353
894 1 2.09808 3.15658 21.2244
1708 1 2.03561 3.12309 19.3582
1702 1 1.96985 3.09054 20.2657
843 1 0.522396 3.0111 21.232
6695 1 1.29671 3.75821 20.7897
1757 1 1.38922 3.75601 18.8636
1751 1 1.34641 3.75843 19.8138
6700 1 0.54003 4.411 19.3768
7654 1 0.444738 4.31251 21.2813
6640 1 0.53665 4.29992 20.3142
699 1 2.01795 3.16457 18.382
7655 1 0.596534 4.40277 18.4355
2798 1 6.53009 3.09795 20.2459
3704 1 6.47754 3.05793 19.3342
3757 1 6.49074 3.12007 21.1864
748 1 1.719 13.3889 21.2003
698 1 1.68344 13.4218 20.2621
1608 1 1.73626 13.4543 19.3307
2820 1 3.28696 0.343736 22.6622
2913 1 1.11145 0.516356 23.1019
2961 1 1.08795 0.426966 24.0554
2754 1 1.07251 0.590531 22.1507
2809 1 2.49553 0.879915 22.2025
814 1 0.186664 0.950654 21.7558
2828 1 1.67954 1.20524 23.5953
2956 1 0.837734 1.71686 23.1821
2768 1 0.808753 1.7582 22.212
2882 1 0.895789 1.64208 24.1302
2912 1 1.63822 1.30663 22.6462
4866 1 1.74682 1.33581 21.6843
915 1 0.265903 1.01556 22.6993
847 1 1.41415 2.44126 22.6786
941 1 1.44485 2.55018 23.6371
797 1 1.39415 2.52294 21.681
820 1 0.308989 0.930592 23.6368
2909 1 2.49288 0.730538 24.0667
2859 1 2.52615 0.864347 23.1374
3800 1 3.30096 0.302069 21.7079
3900 1 3.39069 0.350851 23.6288
2862 1 1.91539 0.0116281 23.5378
2815 1 1.98844 0.102779 22.5996
5861 1 6.59145 0.933894 22.649
3905 1 6.66564 0.934723 23.633
5811 1 6.64028 0.913209 21.6587
3867 1 6.86253 2.29933 22.5919
888 1 2.01273 3.25818 23.1521
938 1 1.95768 3.2739 22.1933
943 1 2.06015 3.3526 24.0996
882 1 0.644151 2.99547 23.1401
887 1 0.570416 3.03342 24.0993
891 1 0.501207 2.92423 22.1884
1802 1 1.20355 3.77641 22.7035
6789 1 1.15738 3.76758 21.7478
7810 1 1.177 3.73031 23.657
7910 1 0.462983 4.33421 24.1318
7704 1 0.46699 4.32267 23.1793
7705 1 0.441689 4.33739 22.2234
3908 1 6.41546 3.0225 24.0973
3802 1 6.46972 3.13314 22.1437
3764 1 6.48003 3.13427 23.1275
3661 1 1.63972 13.4253 22.1768
747 1 1.65262 13.4065 23.1388
793 1 1.48068 13.3997 24.1378
3947 1 3.34145 0.398446 24.5985
2014 1 3.20071 0.366233 27.4631
2972 1 1.11276 0.413091 25.9494
964 1 1.10187 0.354617 25.0001
2967 1 1.04837 0.381584 26.9195
147 1 1.32395 2.53661 27.4803
2962 1 2.49083 0.701142 26.0007
920 1 0.3366 0.891424 24.5705
2872 1 1.68102 1.15892 24.529
2918 1 2.49424 0.704924 25.0333
24 1 0.285658 0.99403 27.4261
870 1 0.255259 0.913653 25.5268
2917 1 1.68659 1.13643 25.4638
2012 1 1.50674 1.17664 27.4251
925 1 0.778288 1.73849 26.0376
2919 1 0.872642 1.67876 25.0609
2077 1 0.807564 1.77592 26.9784
2008 1 1.5506 1.2145 26.4654
993 1 1.33688 2.46094 24.573
994 1 1.33072 2.46086 25.5327
142 1 1.35847 2.54252 26.4902
84 1 0.257759 0.979195 26.4694
2059 1 2.45646 0.778987 26.9436
4956 1 3.31685 0.26795 26.4828
3013 1 6.88099 2.18162 26.4497
5961 1 6.67396 0.938686 24.5778
5963 1 6.651 0.948416 25.5232
5016 1 6.68792 0.911637 27.4368
3925 1 6.60563 0.933221 26.522
6995 1 1.13746 3.81111 27.4691
7855 1 1.19172 3.7515 24.5841
933 1 0.652024 3.05989 25.0743
1851 1 1.19083 3.77144 25.5367
7958 1 0.373323 4.33258 27.0066
7909 1 1.16686 3.8085 26.5002
978 1 1.88169 3.30095 26.9534
989 1 0.574952 2.98566 26.0679
948 1 1.88991 3.28022 25.9976
126 1 0.52162 3.06809 27.0356
7804 1 0.440096 4.27495 25.0932
7915 1 0.43137 4.29263 26.0152
38 1 1.933 3.21586 25.033
3869 1 6.40766 2.93578 25.0348
3901 1 6.43383 2.94004 25.9927
3953 1 6.34606 2.87618 26.9474
892 1 1.62602 13.376 25.0483
897 1 1.77869 13.3098 26.9333
7805 1 1.62406 13.4 25.9998
1002 1 0.778383 15.5799 1.70692
47 1 1.52476 15.1166 0.290697
99 1 1.68593 14.9451 2.17819
1952 1 1.62491 15.0269 1.23921
1012 1 0.379213 14.7525 2.15004
1964 1 0.318849 14.6645 1.19102
1922 1 0.358994 14.7519 0.277383
1063 1 0.705788 15.5587 2.64894
1957 1 0.781226 15.5752 0.752951
1052 1 1.04565 14.1434 2.6576
1908 1 1.23462 14.2183 0.778858
197 1 1.12165 14.2433 1.72496
1018 1 0.256706 16.8497 0.740572
1069 1 0.422493 16.7248 2.62594
1073 1 0.299083 16.8152 1.68776
1988 1 1.57781 21.2524 0.267156
1982 1 1.57098 21.2364 1.23458
7070 1 1.52293 21.1697 2.20538
1127 1 0.636111 21.3865 2.61919
1099 1 0.649658 21.3755 0.73952
1089 1 0.612977 21.344 1.67666
3121 1 3.3826 21.5377 2.69307
1035 1 3.41995 21.6541 0.768048
3072 1 3.41173 21.6029 1.72956
1140 1 1.98277 21.9853 1.74921
1079 1 4.14236 20.8984 0.31279
1220 1 4.09014 20.9336 1.24264
1174 1 4.03835 20.895 2.23511
3187 1 4.80365 21.4387 2.70511
3127 1 4.80095 21.5254 1.71823
1139 1 4.97347 21.391 0.805319
3098 1 2.82492 22.3237 1.25129
3087 1 2.79918 22.3245 2.22402
3048 1 2.79217 22.3236 0.294448
3136 1 1.87382 22.1786 2.6933
1095 1 1.8951 22.1034 0.774324
1993 1 0.975447 22.2077 1.21203
9 1 0.946974 22.2883 0.272411
1092 1 1.02831 22.1888 2.16597
1042 1 0.0566341 22.5305 0.711239
1082 1 0.147488 22.4988 2.61866
51 1 0.0709838 22.5334 1.68085
1242 1 3.55547 22.9954 1.73659
1244 1 3.52371 22.9045 2.70193
1142 1 3.47882 22.9632 0.78551
1145 1 5.43187 22.1411 2.23223
3086 1 5.43605 22.1948 1.26734
3037 1 5.42845 22.1944 0.284377
3181 1 4.13756 22.1933 2.22709
3982 1 4.1049 22.2507 1.26511
1170 1 4.15598 22.3294 0.309481
1188 1 6.24083 22.6542 1.73428
1130 1 6.3532 22.7083 2.68938
3094 1 4.95128 22.9204 2.71774
1090 1 4.8572 22.8446 1.76428
1193 1 4.85655 22.917 0.789445
1135 1 6.15989 22.7169 0.74658
3137 1 4.18399 23.5332 1.24369
3116 1 5.72516 23.3655 2.22084
3022 1 5.64394 23.4045 1.23986
3027 1 5.55502 23.4976 0.275058
3132 1 4.23312 23.5547 0.279041
3128 1 4.21249 23.5385 2.23397
1075 1 6.31843 24.0205 0.746716
3071 1 6.29355 24.0955 1.7275
3066 1 6.30861 24.1199 2.68824
3038 1 5.05484 23.9839 1.7341
3994 1 4.91794 24.1126 0.787141
3045 1 5.04236 24.0066 2.67512
3139 1 5.60896 24.7026 2.21798
3039 1 5.62298 24.7162 0.292298
5091 1 5.54342 24.7422 1.24933
1094 1 0.130357 26.2429 2.22397
3042 1 3.22253 25.8187 2.22156
3976 1 3.23418 25.8796 1.28703
1040 1 3.2172 25.8762 0.352253
3036 1 2.35152 26.2854 2.72219
2051 1 0.998841 25.8178 1.76982
3148 1 0.993744 25.7807 2.72638
3041 1 0.942608 25.8596 0.823416
3944 1 2.34906 26.2188 0.803633
3044 1 2.32627 26.2274 1.77484
2106 1 0.603349 27.0661 1.69049
10 1 0.595651 27.0729 0.789507
104 1 0.583845 26.9866 2.66059
2103 1 1.42754 26.6841 2.23893
2052 1 1.39068 26.6382 0.360691
2102 1 1.43348 26.6219 1.31189
2908 1 2.67562 27.0802 0.358661
2003 1 2.79814 27.0809 2.22788
2964 1 2.6882 27.0637 1.27471
2001 1 0.105672 26.1757 1.27807
3996 1 0.128562 26.3106 0.312197
2023 1 1.81622 27.4916 0.79175
2062 1 1.85364 27.4875 1.74963
2058 1 1.93078 27.5263 2.68315
3092 1 3.67371 26.7389 1.76282
2953 1 3.62597 26.758 0.83038
5991 1 4.3432 24.8572 2.26215
3046 1 3.61834 26.6167 2.72039
4851 1 4.27946 24.9515 0.343074
3995 1 4.31421 24.8827 1.31239
3940 1 6.27888 25.3202 0.797222
3040 1 6.32247 25.4549 1.76584
5036 1 4.98113 25.5596 1.74987
5086 1 6.40649 25.447 2.70176
2053 1 4.9711 25.6006 2.6991
3089 1 5.00838 25.4909 0.811264
2060 1 4.43887 26.3208 1.24981
2955 1 4.39847 26.2947 0.321093
3095 1 5.70111 26.1592 1.25544
4052 1 4.49442 26.3064 2.20825
5092 1 5.71895 26.1352 2.21479
2914 1 5.78794 26.0951 0.320491
2100 1 6.30976 26.8229 1.71515
3053 1 6.40402 26.8464 2.69344
2055 1 5.03922 27.0063 2.68935
4000 1 4.9991 27.0073 0.765119
5097 1 4.9407 27.0285 1.71408
3962 1 6.39939 26.8425 0.768336
2110 1 4.20442 27.5478 2.23305
4011 1 4.13362 27.5076 0.294909
2009 1 4.16007 27.4829 1.25809
3106 1 1.5439 15.0216 3.16625
1168 1 1.14839 14.1885 5.51745
1962 1 1.14484 14.156 4.5578
46 1 0.326397 14.7026 3.11747
1310 1 1.54901 15.0096 5.98866
1255 1 1.53447 14.9775 5.032
1159 1 1.58002 15.0186 4.08861
1107 1 0.400408 14.8134 5.00341
1157 1 0.394789 14.7467 5.95168
1051 1 0.359634 14.6767 4.08381
1217 1 0.839445 15.5996 4.51092
1113 1 0.757051 15.5173 3.5868
1261 1 0.846661 15.6479 5.48382
1013 1 1.12883 14.211 3.62015
1163 1 0.00225114 15.9565 5.9648
1058 1 0.00188367 16.0458 4.07786
1229 1 0.356678 16.8266 5.52329
1213 1 0.452585 16.8517 3.6123
1124 1 0.369562 16.8426 4.57996
1131 1 1.56196 21.224 3.13538
1128 1 0.648073 21.3588 3.59211
1129 1 1.45498 21.1623 5.02369
1022 1 1.54255 21.2495 4.09765
1283 1 1.58229 21.1375 5.97414
1286 1 0.607207 21.4254 5.51644
1182 1 0.538507 21.3902 4.56854
1225 1 3.39378 21.6666 5.54365
1228 1 3.40395 21.6769 4.60352
1235 1 3.40772 21.5968 3.64019
1173 1 4.01591 20.8828 3.18517
1218 1 3.97253 20.92 5.11846
1123 1 3.95223 20.913 4.1757
1268 1 3.92098 20.8574 6.04738
3131 1 4.75517 21.4569 3.64472
3156 1 4.71146 21.4408 4.58352
3216 1 4.63926 21.4578 5.54699
1230 1 5.52233 22.0079 4.11471
1234 1 5.4363 22.0045 5.98049
1238 1 2.81062 22.3085 3.2088
1137 1 2.81861 22.3357 4.13561
1290 1 2.73863 22.3937 5.09992
1190 1 2.7905 22.4362 6.0529
1342 1 1.90123 22.0748 5.57322
3186 1 1.90371 22.2256 3.71427
1185 1 1.85427 22.068 4.63252
1194 1 0.953369 22.2279 3.15625
1180 1 0.953287 22.2435 5.06326
1197 1 0.928679 22.2006 4.09
1239 1 1.00244 22.261 6.01708
1288 1 3.41761 23.0104 3.64668
1038 1 0.0548901 22.4525 3.5828
1147 1 0.0590586 22.3521 5.55818
3242 1 5.44253 22.069 5.02598
3281 1 3.53824 23.0074 4.59808
3147 1 5.41014 22.1395 3.19308
1240 1 3.53986 22.9802 5.52894
1036 1 4.12909 22.1814 3.16149
1143 1 4.13076 22.2922 4.10498
1184 1 4.16665 22.2287 5.99522
1085 1 4.10827 22.3187 5.06465
3176 1 6.14607 22.6422 3.62744
3232 1 6.22417 22.6301 4.58163
3322 1 6.23177 22.6452 5.52947
3088 1 4.88165 22.8893 3.66644
3141 1 4.94172 22.836 5.58204
3182 1 4.86269 22.8225 4.6261
3124 1 4.17765 23.562 3.18323
3174 1 5.7058 23.4157 3.14647
3052 1 5.69815 23.4043 4.09533
3229 1 5.68131 23.3805 6.01163
3223 1 5.73757 23.4018 5.03318
3292 1 4.30952 23.5031 6.04212
3198 1 4.29779 23.5571 5.08239
3122 1 4.22682 23.5406 4.13273
1015 1 6.36202 23.9951 3.63086
3157 1 6.33549 24.1418 4.56205
1160 1 6.37207 24.1368 5.51001
3171 1 5.03554 24.0315 4.57208
3379 1 5.14775 24.0483 5.54503
3193 1 5.09443 24.0652 3.60973
3200 1 5.72474 24.7425 6.00131
2105 1 5.58443 24.7716 4.08334
2155 1 5.6734 24.6997 5.01079
3190 1 4.56303 24.7923 6.02914
3133 1 4.4905 24.7937 3.17934
3096 1 0.139141 26.1847 3.14999
2107 1 1.88736 27.5046 3.64274
3138 1 3.137 25.7247 3.18313
3188 1 3.19859 25.7456 4.12037
3197 1 3.11722 25.7977 5.09837
3239 1 3.14292 25.8258 6.00772
2005 1 1.45779 26.6846 3.17004
3050 1 2.73643 27.0763 3.16067
3144 1 2.35473 26.2609 5.53993
3184 1 2.25602 26.3021 4.58272
2151 1 1.08688 25.7915 5.5432
3097 1 0.963478 25.8914 3.64051
2101 1 0.994904 25.7963 4.60873
3183 1 2.21948 26.1799 3.63958
154 1 0.577473 27.04 3.66811
3146 1 0.68662 27.0865 4.61665
2218 1 0.69932 27.0306 5.54729
2152 1 1.51557 26.5921 6.02371
2208 1 1.49186 26.6365 5.07408
2153 1 1.46142 26.6582 4.12962
2213 1 2.86518 27.0682 6.02465
2104 1 2.82029 27.0804 5.0802
2163 1 2.83792 27.039 4.11894
2203 1 1.92814 27.4463 4.58837
1100 1 0.100394 26.2115 4.1246
1150 1 0.106191 26.3133 6.00174
65 1 0.144101 26.2241 5.06182
2168 1 1.95469 27.372 5.53225
3100 1 5.67106 24.907 3.14851
3179 1 3.60329 26.6031 3.6453
3178 1 3.61207 26.5935 4.60388
2205 1 4.56808 24.8382 5.08268
3084 1 4.56763 24.8479 4.11874
3233 1 3.73237 26.6374 5.56563
3093 1 6.37856 25.453 3.69666
3189 1 6.40388 25.4951 5.53573
3191 1 5.12129 25.5864 4.55789
3192 1 5.20089 25.4475 5.5378
3099 1 5.07029 25.5582 3.62565
4051 1 5.67654 26.3253 3.1576
5096 1 4.465 26.3699 3.16244
2254 1 4.47156 26.1632 5.9987
5147 1 4.42442 26.2973 4.10784
5196 1 4.47849 26.2121 5.04506
5984 1 5.80372 26.2536 5.0659
5146 1 5.6672 26.3104 4.1202
5191 1 5.85003 26.3169 6.0223
3254 1 6.42308 26.9812 5.53777
3130 1 6.41826 26.8384 4.57012
5197 1 4.97844 26.9309 5.54918
3150 1 4.99832 26.9908 4.61364
3194 1 5.1334 27.0488 3.67113
2259 1 4.24878 27.4079 6.06107
3249 1 4.19442 27.4351 5.07741
5246 1 4.19481 27.4752 4.13658
3108 1 6.47079 26.8464 3.60856
5247 1 4.16496 27.4412 3.19836
1154 1 1.16963 14.1866 7.43814
1153 1 1.16448 14.1449 6.45923
1206 1 1.16724 14.2021 8.41827
393 1 1.6447 15.1548 8.81421
1260 1 1.56446 14.9668 6.93537
1358 1 1.67549 14.9955 7.87369
247 1 0.300586 14.6987 7.87862
7154 1 0.326148 14.7049 8.84767
1151 1 0.364194 14.7656 6.90779
1267 1 0.796155 15.4785 8.35774
7315 1 0.831381 15.5202 7.41187
1271 1 0.803624 15.5626 6.43302
1164 1 0.0593046 16.0165 6.95853
1269 1 0.328599 16.9449 8.38568
1258 1 0.412531 16.9475 7.4211
1223 1 0.37831 16.779 6.46521
7290 1 0.582557 21.4435 6.48715
1233 1 0.557635 21.3759 8.38158
1343 1 0.597465 21.4658 7.41255
1291 1 1.53032 21.1818 6.91661
1438 1 1.50026 21.2863 8.79202
1341 1 1.48083 21.1284 7.83839
3326 1 3.42678 21.704 8.43327
3226 1 3.3885 21.738 7.50321
3231 1 3.36855 21.6054 6.54889
1370 1 3.7937 20.8932 7.96611
1224 1 3.87621 20.8682 7.01075
1321 1 3.92065 20.8843 8.89506
3266 1 4.64083 21.445 6.50915
1375 1 4.77744 21.4657 8.39688
3271 1 4.67358 21.5169 7.43415
1285 1 5.48641 22.0388 7.902
1335 1 5.49383 22.0171 8.87141
3177 1 5.4597 22.032 6.95491
1349 1 0.0332722 22.3649 8.38235
1388 1 2.76448 22.4795 6.97048
3386 1 2.70916 22.5731 8.8922
1289 1 2.75698 22.5732 7.93071
3341 1 1.89147 22.1551 8.37807
3331 1 1.88505 22.0599 7.43974
1344 1 1.8392 22.0846 6.51731
3316 1 0.974903 22.2793 7.9158
1338 1 0.991563 22.3069 6.97619
1394 1 1.02233 22.2809 8.87869
1199 1 0.0844555 22.3675 6.50074
3282 1 3.56986 22.9344 6.49361
3327 1 3.51821 23.0155 8.40586
3277 1 3.58904 22.9541 7.44146
3276 1 4.14636 22.2867 8.85311
1280 1 4.12176 22.2433 6.95937
1324 1 4.17822 22.252 7.92581
3287 1 6.15232 22.6114 6.43149
3338 1 6.20849 22.5619 8.34964
3332 1 6.19688 22.5901 7.36723
3237 1 4.91943 22.7654 6.50452
3250 1 4.94365 22.8335 7.47441
3236 1 4.93762 22.7978 8.39942
3227 1 5.70944 23.422 6.95201
3221 1 5.6778 23.3724 8.85384
3273 1 5.76362 23.3571 7.89248
3432 1 4.31087 23.5248 8.87206
3318 1 4.37505 23.5584 7.93833
3429 1 4.33522 23.5946 6.99412
3201 1 6.38487 24.1098 6.47117
3261 1 6.47984 23.9957 7.46738
3311 1 6.36325 24.0707 8.37208
3334 1 5.10597 24.1379 8.38913
3279 1 5.06742 24.1183 7.43736
3230 1 5.0822 24.0683 6.48793
3275 1 5.75045 24.7803 8.85609
3340 1 5.69612 24.7555 7.92942
3195 1 5.74719 24.707 6.975
274 1 0.0931623 26.2502 8.85438
2201 1 1.96843 27.5027 6.49962
3196 1 3.1318 25.7017 6.97018
1350 1 3.10951 25.696 8.84261
3246 1 3.07388 25.7284 7.90149
1250 1 1.01661 25.7676 6.49707
3296 1 1.04274 25.827 7.43583
105 1 0.690585 27.0168 6.48084
3247 1 2.34617 26.2658 8.39129
309 1 1.01408 25.8281 8.40006
3299 1 2.8249 27.0209 8.86642
3199 1 2.81588 27.0152 6.96109
3342 1 1.49895 26.601 8.8898
2258 1 2.81976 27.0739 7.9397
2256 1 0.698173 27.0153 7.42475
2306 1 1.52524 26.6028 6.94095
3293 1 2.36462 26.2576 6.46576
2261 1 0.613071 26.9892 8.36449
3291 1 1.52247 26.6095 7.91462
3278 1 2.3089 26.2451 7.42608
3248 1 1.88773 27.4807 7.46866
2202 1 1.9258 27.4289 8.40755
1200 1 0.176194 26.2914 6.95322
214 1 0.0608351 26.2742 7.90086
5341 1 5.85513 26.2842 6.98616
4456 1 4.16654 27.3614 7.90869
5226 1 6.52306 26.9384 6.4944
2309 1 4.23432 27.3439 6.97388
3244 1 5.14723 25.4922 8.37458
5176 1 6.38127 25.4776 6.48613
4203 1 5.05682 26.858 6.5007
5242 1 4.95357 26.9164 8.39297
5292 1 5.03804 26.8486 7.44385
3393 1 4.47124 26.1079 8.8475
3243 1 5.12264 25.4435 6.46705
5416 1 6.46483 26.9278 7.47045
3294 1 5.10861 25.3909 7.41552
3235 1 3.59834 26.5215 7.43878
2305 1 4.46534 26.1187 6.93012
3220 1 6.41757 25.4454 8.4032
4357 1 4.14576 27.3663 8.87908
2410 1 4.38357 25.9821 7.88706
3300 1 5.82705 26.2481 8.8428
3297 1 3.65623 26.5992 6.49124
3228 1 6.38769 25.4852 7.44265
3370 1 6.54007 26.8977 8.3836
2204 1 5.79591 26.2428 7.92695
3234 1 3.70414 26.5813 8.37397
1307 1 1.60728 15.1001 9.79805
1362 1 1.62435 15.1795 10.7804
1411 1 1.62554 15.2894 11.6994
1407 1 0.331913 14.6997 10.7401
1302 1 0.306601 14.7469 9.77486
499 1 0.357971 14.699 11.7143
1312 1 0.752955 15.5681 11.212
1367 1 0.737095 15.618 12.1481
1368 1 0.772574 15.5086 10.2712
1262 1 0.835829 15.4729 9.3078
1357 1 1.15881 14.3984 10.2775
1361 1 1.21288 14.3931 11.2354
297 1 1.11039 14.3144 9.34484
440 1 1.18599 14.5144 12.1947
1374 1 0.27622 16.8797 12.1583
1263 1 0.416202 16.9027 9.31988
1369 1 0.289189 16.9348 10.2732
1373 1 0.206778 16.9591 11.2207
1383 1 1.46917 21.2333 9.76017
1489 1 1.52331 21.1917 11.6503
1439 1 1.50275 21.2657 10.6904
1444 1 0.597223 21.3875 11.266
1430 1 0.631127 21.3813 12.1969
3442 1 0.554778 21.5052 10.2742
1334 1 0.565236 21.4037 9.30467
1325 1 3.32443 21.8232 9.37401
1520 1 3.35108 21.8003 12.211
1385 1 3.29107 21.8326 10.3248
1435 1 3.30439 21.8348 11.3037
1469 1 3.90222 21.1491 10.7689
1519 1 4.00471 20.9605 11.7487
3376 1 3.96384 21.122 9.81899
3377 1 4.77171 21.5421 10.282
3417 1 4.75706 21.5157 12.2084
1275 1 4.79345 21.5195 9.33666
1320 1 4.81848 21.5979 11.2528
3396 1 0.0104744 22.4179 10.2946
1595 1 2.64903 22.5656 11.7357
1440 1 2.65915 22.4805 9.8519
3546 1 2.73356 22.5127 10.7964
3397 1 1.85587 22.1145 10.2921
3382 1 1.88808 22.0793 12.2427
3387 1 1.82729 22.1249 11.2598
3337 1 1.87988 22.0892 9.33238
1484 1 0.948033 22.3683 9.83654
1447 1 0.934512 22.3003 10.7926
1490 1 0.96989 22.2957 11.7254
1588 1 0.0609484 22.5223 12.1727
1330 1 3.49024 22.9833 9.362
3487 1 3.57114 23.0087 12.2283
3447 1 3.46627 23.1139 10.2901
3592 1 3.55988 22.9915 11.2673
3426 1 5.53962 22.1102 11.7428
3461 1 5.59303 22.0778 10.8037
1380 1 5.5874 22.1193 9.82943
3421 1 4.14036 22.2674 10.8027
3471 1 4.1964 22.2085 11.7469
1470 1 4.16701 22.2562 9.82331
1279 1 6.29434 22.7721 11.2417
3391 1 6.28664 22.6394 9.30747
3431 1 6.24376 22.7544 10.2955
3388 1 4.9294 22.7479 11.2478
3437 1 4.91595 22.8632 12.1861
3238 1 4.89526 22.784 9.3407
3283 1 4.95171 22.824 10.2802
3428 1 5.61396 23.4101 10.7542
3462 1 5.69109 23.5056 11.6749
3333 1 5.61984 23.3626 9.77777
3482 1 4.27181 23.5224 9.80433
3438 1 4.26794 23.5223 10.7583
3488 1 4.26522 23.5544 11.6894
3422 1 6.30394 24.1493 11.2173
3371 1 6.38132 24.0696 9.32315
1274 1 6.28992 24.0818 10.2915
1474 1 6.30414 24.1382 12.1869
3345 1 4.96671 24.1532 11.2026
3427 1 5.02813 24.139 10.2626
3445 1 5.04005 24.2024 12.1558
3384 1 5.03528 24.1512 9.31711
3536 1 6.24065 22.7261 12.1928
3380 1 5.72086 24.7693 9.78585
2303 1 1.93498 27.4009 9.34867
2302 1 3.19099 25.7332 9.78206
2351 1 3.28232 25.8072 10.7546
2353 1 3.16632 25.7707 11.7399
3491 1 2.42014 26.2768 10.2994
3378 1 2.35092 26.2422 11.2402
410 1 1.03745 25.8041 10.3059
355 1 0.966696 25.8821 11.2239
1389 1 0.97032 25.8143 12.1726
3284 1 2.30128 26.1567 9.3354
2312 1 0.687306 27.0984 11.2166
2304 1 0.694318 27.0807 10.2616
2402 1 0.540391 27.0176 12.1617
2457 1 1.4274 26.7426 11.7304
404 1 1.48308 26.6211 10.7884
3441 1 1.54435 26.5928 9.827
1345 1 2.77842 27.0674 10.7855
3298 1 2.77529 27.0851 9.84375
3398 1 2.77012 27.035 11.7122
2311 1 0.57338 27.0705 9.30892
359 1 1.08032 25.7664 9.33071
3328 1 2.34187 26.2032 12.1661
310 1 0.22507 26.1797 9.79906
2361 1 0.125999 26.2682 11.7015
2301 1 1.93588 27.4532 10.2926
3494 1 1.93268 27.4883 11.2477
370 1 0.178706 26.2862 10.7565
2506 1 1.93764 27.4933 12.1975
3320 1 5.66998 24.8361 10.7214
3479 1 5.73668 24.8601 11.6742
3448 1 3.55044 26.625 12.2039
3444 1 3.60079 26.6631 11.2378
3295 1 3.55923 26.6728 10.2922
3347 1 3.62551 26.5684 9.33618
3288 1 6.50103 25.4817 9.3224
3389 1 6.40982 25.5566 11.256
3349 1 5.17191 25.5589 9.31464
3435 1 6.3782 25.6834 12.169
3394 1 6.36581 25.4208 10.2975
3348 1 5.13833 25.579 10.2537
3499 1 5.12232 25.5589 12.1752
1400 1 5.14392 25.6 11.2147
5346 1 5.0039 26.8387 9.32322
2510 1 4.37829 26.1359 11.7227
2354 1 4.38083 26.0277 9.77548
3449 1 5.74061 26.3549 11.6998
2355 1 4.33889 26.1114 10.7848
3343 1 5.79599 26.2952 10.749
5291 1 5.86492 26.2718 9.80447
5447 1 4.98158 26.7756 11.2537
5497 1 4.96237 26.9943 12.2146
5448 1 5.03854 26.7419 10.2868
2359 1 4.14091 27.3115 11.7226
2308 1 4.24589 27.3464 10.7806
4407 1 4.15253 27.3188 9.81152
5456 1 6.5623 26.9101 11.2239
5361 1 6.46411 27.0159 10.3059
5516 1 6.57482 26.95 12.1659
5266 1 6.48144 26.9169 9.32955
1401 1 1.68484 15.2887 14.547
1412 1 0.358071 14.8106 14.5444
1363 1 1.80111 15.3869 13.6008
1417 1 0.808966 15.6808 13.1149
1507 1 0.79212 15.6116 14.9807
1457 1 0.795104 15.6876 14.0633
1351 1 1.67174 15.2466 12.6691
1419 1 0.369087 14.8923 13.6198
1420 1 0.238553 14.6606 12.639
1511 1 1.27974 14.4648 15.0442
1553 1 1.22236 14.4551 14.0562