ITEM: TIMESTEP
90000
ITEM: NUMBER OF ATOMS
8000
ITEM: BOX BOUNDS pp pp pp
0.0000000000000000e+00 2.7564674686161492e+01
0.0000000000000000e+00 2.7564674686161492e+01
0.0000000000000000e+00 2.7564674686161492e+01
ITEM: ATOMS id type x y z
6165 1 0.0548198 0.907122 0.0914304
6024 1 0.087885 1.83598 0.639111
6223 1 0.0776171 1.79845 2.67695
6074 1 0.0336994 0.934531 1.15223
4125 1 0.0267048 0.917623 2.16677
6163 1 0.0930544 1.82233 1.64021
24 1 4.11683 2.44745 2.59658
6115 1 3.82914 1.39418 1.63069
6019 1 3.84451 1.40846 0.589873
222 1 3.86625 1.41707 2.65542
7100 1 4.44059 0.687661 1.09772
7149 1 4.40906 0.660216 2.12753
57 1 4.44321 0.684027 0.0815194
6055 1 4.73288 1.66314 0.0635512
64 1 4.69684 1.70813 2.12609
56 1 4.72201 1.71077 1.10273
51 1 5.30159 1.00993 0.614573
6104 1 5.25758 0.995076 1.62679
6169 1 5.30275 1.04348 2.65141
12 1 6.39397 1.05181 2.64674
13 1 6.38197 0.995748 0.603012
11 1 6.41183 1.03556 1.64309
72 1 5.8352 1.76566 1.09203
61 1 5.79889 1.78502 2.11858
14 1 5.82753 0.314418 1.1331
6105 1 5.83231 0.325953 2.14707
110 1 5.81189 1.73814 0.0601692
53 1 5.80525 0.284174 0.116253
6073 1 4.12152 2.41002 1.55979
7050 1 4.1666 2.41269 0.567569
970 1 6.69935 2.04969 0.542657
226 1 3.62902 0.324977 2.72225
124 1 5.2396 2.47028 2.62389
68 1 5.20374 2.45679 1.59829
968 1 5.23889 2.44224 0.584662
979 1 6.07281 2.7557 0.0485041
79 1 6.11624 2.74266 1.11192
2051 1 6.67308 0.0422052 2.67488
132 1 3.26456 4.10948 1.0546
123 1 3.24124 3.57638 1.95805
167 1 3.2681 3.41055 2.98486
78 1 3.25954 4.10913 0.0485359
27 1 4.67818 3.16035 0.0100536
134 1 6.11185 2.79976 2.11511
969 1 3.55218 3.11964 1.06206
118 1 4.05145 3.91803 2.56108
23 1 4.1127 3.87705 1.55786
16 1 4.12948 3.85397 0.526589
9 1 4.67247 3.1601 1.05747
74 1 4.63319 3.17318 2.0971
135 1 4.95712 4.16958 1.01684
138 1 4.93543 4.2033 2.05718
75 1 5.5145 3.45202 0.540164
125 1 5.52531 3.48207 1.56098
2076 1 5.52822 3.52774 2.58294
88 1 5.76893 4.51123 0.506179
82 1 5.76629 4.57195 2.53107
189 1 5.80218 4.52388 1.52024
84 1 6.36798 3.81309 1.03847
2032 1 6.37285 3.83873 2.04878
2028 1 6.37951 3.80725 0.0209673
209 1 4.89251 4.28663 3.05901
66 1 3.62271 3.09624 0.0439604
33 1 1.81921 13.7529 0.630933
122 1 1.91011 13.7356 2.64751
43 1 1.89347 13.7417 1.62416
1000 1 5.11767 13.6134 0.0382815
2137 1 5.54413 11.8797 2.05938
2087 1 5.58696 11.8184 1.05555
2042 1 5.34266 12.7433 0.544972
150 1 5.30686 12.7468 2.5519
2138 1 5.2992 12.7256 1.5423
50 1 4.26266 13.0839 2.56785
45 1 4.30659 13.0889 1.54552
1953 1 4.29797 13.1421 0.526222
2238 1 6.3023 12.3702 2.579
2242 1 6.34113 12.3667 1.54474
95 1 6.0844 13.2453 1.06617
100 1 6.08182 13.2674 2.07555
2093 1 6.356 12.3401 0.539101
1110 1 5.05243 13.6118 1.06301
1059 1 5.0934 13.603 2.0591
2048 1 6.09189 13.2348 0.0348163
44 1 5.60861 11.8183 0.0228347
3008 1 6.8344 13.7746 2.59479
3001 1 6.85423 13.7632 0.560635
3057 1 6.8411 13.7669 1.57042
6225 1 0.0736239 1.832 3.69352
271 1 0.0609598 1.88297 5.74764
6180 1 0.0671989 0.907653 3.18489
321 1 0.0505648 1.86776 4.70368
6235 1 0.0220857 0.919578 4.19517
6305 1 0.0327383 0.959581 5.23259
169 1 6.71835 0.0133733 3.68108
6119 1 3.87626 1.37288 3.69387
6279 1 3.92723 1.36439 4.69603
6334 1 3.91745 1.36696 5.72553
203 1 3.6466 0.363841 4.75055
204 1 3.59159 0.384423 3.73341
113 1 5.85325 0.340208 3.20232
6164 1 4.50781 0.712795 5.20797
6264 1 4.48927 0.673007 4.16427
6155 1 4.45158 0.720116 3.1496
156 1 4.69575 1.7792 3.15853
6109 1 5.28925 1.13205 3.69183
6058 1 5.85739 1.79729 3.12888
112 1 6.40543 1.11642 3.65823
107 1 6.40554 1.1804 4.66552
111 1 5.60699 0.806833 5.17889
158 1 5.8569 1.86352 4.15762
6110 1 5.83567 1.86719 5.16162
6214 1 5.01229 1.45162 4.61931
261 1 4.97599 1.5213 5.68016
154 1 6.41125 1.17992 5.70911
101 1 5.87281 0.388474 4.23185
6157 1 4.43357 2.10221 4.12944
6215 1 4.41704 2.1988 5.13656
285 1 6.68464 2.23245 5.6963
178 1 6.7157 2.18023 4.67023
2141 1 6.70349 2.14344 3.66489
307 1 3.69482 0.325452 5.76923
187 1 5.22642 2.52206 3.63464
120 1 5.23371 2.55652 4.63187
6210 1 5.24783 2.55602 5.66582
1200 1 6.81764 0.0267681 4.68879
2111 1 5.06044 0.0131909 4.72838
152 1 5.09336 0.0558997 5.75265
1299 1 6.8353 0.023903 5.70525
39 1 6.34012 3.8574 3.06574
2187 1 6.35746 3.92825 5.11401
2136 1 6.35563 3.88864 4.0914
6280 1 4.88239 4.27695 4.07893
212 1 4.85868 4.22799 5.09204
162 1 4.64925 3.22245 5.12363
128 1 4.02833 3.91393 3.58572
270 1 3.98976 3.88005 5.569
157 1 4.6118 3.22764 4.09402
119 1 4.62884 3.2059 3.07764
183 1 4.03237 3.90523 4.59094
130 1 5.48155 3.57421 3.57876
207 1 5.47618 3.59723 4.59979
274 1 5.46828 3.57198 5.63668
85 1 6.08885 2.86108 4.13553
2181 1 6.08088 2.90566 5.155
90 1 6.0564 2.84246 3.12822
185 1 5.75717 4.56955 3.55205
235 1 5.73783 4.59175 4.56153
281 1 5.71397 4.64699 5.56411
6220 1 4.86151 4.30074 6.09345
168 1 2.02769 13.6111 5.72451
188 1 1.93877 13.6668 4.70974
174 1 1.93489 13.7208 3.65962
2183 1 5.58647 11.8322 3.09688
1105 1 5.03832 13.6103 3.08409
2196 1 5.08229 13.5941 5.14628
2288 1 6.3593 12.3701 4.61709
2283 1 5.61059 11.8464 5.15874
2233 1 5.53577 11.8703 4.13473
2247 1 5.29844 12.724 4.61795
2240 1 5.34847 12.7109 5.67243
250 1 5.31098 12.7146 3.58385
145 1 4.2878 13.0778 3.58494
195 1 4.36765 13.0739 5.65152
198 1 4.30749 13.0894 4.64866
2188 1 6.03553 13.2538 3.08615
2293 1 6.05888 13.2001 4.10746
2297 1 6.0727 13.2246 5.16245
3201 1 6.36521 12.3555 5.65369
2145 1 6.32402 12.3598 3.59458
3103 1 5.03994 13.5847 4.10036
3163 1 6.81362 13.7526 3.61636
3211 1 6.82208 13.7684 5.6472
3106 1 6.81911 13.7652 4.6349
1398 1 2.91116 0.0256945 7.36889
6367 1 0.0150927 1.00326 7.31183
6364 1 0.00986982 1.02049 8.38911
266 1 0.0583576 0.994272 6.28952
1393 1 2.90025 0.0477428 8.39442
6420 1 0.0629464 1.91054 7.83916
6320 1 0.079217 1.92571 6.77577
366 1 0.0313068 1.92916 8.85929
210 1 6.84779 0.0502839 6.72698
311 1 5.10221 0.0412895 6.74405
263 1 5.10471 0.106227 7.7493
401 1 3.7969 0.350164 7.82432
362 1 3.77307 0.443322 8.82244
351 1 3.72107 0.305654 6.79079
6365 1 4.00026 1.50012 8.80815
6369 1 3.9745 1.48959 6.75546
259 1 3.95473 1.45751 7.7738
1238 1 4.52747 0.755427 6.25074
324 1 4.56381 0.822164 7.27181
6419 1 4.60746 0.818919 8.31278
308 1 6.47758 1.40186 8.74099
268 1 5.05025 1.66057 8.7844
161 1 5.58936 0.838638 6.21737
218 1 5.00752 1.55757 6.71782
258 1 5.60104 0.910272 7.24682
253 1 5.64728 0.920972 8.24145
265 1 6.44926 1.27882 6.72907
314 1 6.44324 1.3123 7.73566
355 1 6.47864 0.332792 8.6632
1349 1 5.03508 1.60347 7.73878
165 1 5.85761 1.89808 6.19526
219 1 5.83103 1.97626 7.19593
264 1 5.84962 2.02579 8.24134
6314 1 4.41419 2.21593 6.18214
240 1 6.68337 2.28877 6.70475
6265 1 4.4162 2.2955 7.22028
277 1 6.67717 2.34731 7.72669
230 1 6.67821 2.41338 8.74426
316 1 4.41919 2.2907 8.25743
309 1 5.2632 0.119475 8.773
6260 1 5.24485 2.63058 6.69241
361 1 5.21853 2.6972 7.71596
269 1 5.21888 2.7227 8.74069
255 1 6.85753 0.0139084 7.77065
318 1 4.91812 4.49139 9.16276
228 1 6.27471 4.00698 6.12986
211 1 4.6051 3.26384 6.16328
272 1 6.26097 4.0866 7.15451
317 1 6.29526 4.18957 8.16617
89 1 6.07045 2.92883 6.19223
213 1 4.55664 3.35045 8.18332
217 1 4.58295 3.33751 7.16835
275 1 5.43102 3.64383 6.6675
319 1 5.44669 3.70508 7.66564
325 1 5.46279 3.73594 8.68704
216 1 4.84582 4.3666 7.11126
322 1 4.82829 4.40255 8.14277
2237 1 6.08334 3.01192 7.20264
2176 1 6.07973 3.05323 8.22214
6335 1 2.11425 13.5805 6.72253
350 1 4.33658 13.086 8.75609
2395 1 6.36907 12.3484 8.72894
2248 1 5.35887 12.7227 6.69977
2291 1 5.13226 13.6162 8.21939
1160 1 6.13382 13.208 7.17047
2391 1 5.63299 11.8415 8.22503
2296 1 4.37335 13.0498 7.7231
1204 1 4.38092 13.0355 6.67634
2292 1 5.13565 13.5984 7.21492
3301 1 5.36518 12.7282 8.75313
1209 1 6.14265 13.238 8.22065
2336 1 5.59703 11.8372 6.19615
290 1 5.63051 11.8615 7.21265
2246 1 5.12345 13.5925 6.17715
1254 1 6.11866 13.228 6.18175
2348 1 5.4164 12.7405 7.72979
3158 1 6.3731 12.3409 6.7122
3308 1 6.40023 12.3483 7.71654
6515 1 0.807265 0.67145 11.9497
6370 1 0.840837 1.59596 9.38576
411 1 0.845157 1.57043 10.39
526 1 0.779705 1.58159 11.4285
1396 1 2.95425 0.0411347 9.41114
412 1 3.80949 0.47151 9.89211
356 1 3.90858 0.481486 10.8967
524 1 4.19847 1.47685 11.921
371 1 4.08639 1.4975 10.8617
406 1 4.02297 1.5227 9.80743
409 1 4.71266 0.846714 10.3356
6315 1 4.65163 0.818252 9.33496
2371 1 4.80641 0.846494 11.3646
357 1 5.0831 1.64812 9.80756
414 1 5.25 1.76821 11.8478
364 1 5.13672 1.69137 10.825
415 1 5.82991 1.04792 11.2671
469 1 5.72172 1.03597 10.2657
358 1 6.50435 1.42181 9.74643
359 1 5.33237 0.148383 9.78097
369 1 6.59357 1.50449 10.7433
470 1 5.39451 0.189737 10.776
520 1 5.50511 0.195092 11.7845
2401 1 6.46047 0.387697 10.6968
404 1 6.53949 0.394458 11.6798
405 1 6.68369 1.48375 11.728
310 1 5.69692 0.965736 9.26207
302 1 6.40138 0.372926 9.71664
365 1 5.84096 2.05434 9.25246
2412 1 5.88248 2.10523 10.2735
6460 1 4.43609 2.31533 9.29785
6525 1 4.46894 2.3003 11.3671
303 1 4.46357 2.28814 10.3397
279 1 6.69278 2.44716 9.75719
427 1 6.64174 2.56075 11.8338
330 1 6.66058 2.51275 10.7984
462 1 3.98203 0.474292 11.9248
327 1 5.23707 2.738 9.76923
367 1 5.21853 2.77188 10.7858
313 1 6.22678 4.19494 10.1842
420 1 5.2232 2.8236 11.8403
417 1 4.58152 3.38582 10.2377
473 1 4.59001 3.45539 11.2975
374 1 5.40347 3.77396 9.71915
6470 1 5.40618 3.83544 10.7569
418 1 5.42664 3.89844 11.7493
363 1 6.25306 4.20405 11.2037
2366 1 6.06042 3.17931 10.249
424 1 6.04227 3.18659 11.2756
332 1 6.88922 3.5035 9.71861
315 1 6.04913 3.09287 9.22669
368 1 4.60715 3.37323 9.21917
385 1 6.87913 3.57553 11.721
262 1 6.28954 4.161 9.19322
486 1 1.31802 13.2114 12.173
482 1 1.40752 13.1802 11.1643
381 1 0.880306 13.7823 9.4214
3356 1 6.39875 12.3543 10.7714
2446 1 5.42276 12.7043 9.7894
3354 1 5.40738 12.7186 10.7833
3401 1 5.42387 12.7183 11.8063
3451 1 4.44053 13.0404 10.7761
494 1 4.43787 13.0626 11.8112
445 1 4.40358 13.0762 9.76634
2449 1 5.66703 11.8221 11.2623
2298 1 5.62196 11.8108 10.2632
3368 1 6.15802 13.2216 10.271
3458 1 6.15093 13.2528 11.2781
3407 1 6.43596 12.3379 11.8077
3410 1 6.38761 12.3488 9.73836
550 1 5.15806 13.5992 11.2852
2396 1 5.13569 13.6359 9.24272
399 1 5.12805 13.6219 10.2672
2341 1 5.57861 11.803 9.25335
3306 1 6.16305 13.239 9.24767
576 1 0.745555 0.653334 12.9569
6475 1 0.71404 1.52046 14.4989
527 1 0.759296 1.60119 12.4551
472 1 0.732189 1.559 13.4862
572 1 3.56754 2.4009 13.7797
403 1 5.86889 1.0405 12.258
463 1 4.5484 2.29499 12.4058
6615 1 4.03869 1.1109 13.8908
6570 1 4.01755 1.04392 12.8301
6660 1 4.06168 1.13497 14.9846
408 1 4.86638 0.723555 12.4018
1646 1 4.89546 0.598572 13.3909
1696 1 4.79218 0.641156 14.457
1598 1 6.67169 0.390846 13.6777
512 1 5.22072 1.57236 12.8846
452 1 5.09028 1.47944 13.9255
507 1 5.06851 1.54859 14.9602
508 1 6.01325 1.57102 14.4739
453 1 6.07552 1.12812 13.2384
502 1 6.63225 0.410185 14.6599
458 1 5.71074 0.648018 14.0294
559 1 5.74608 0.692283 15.0401
2616 1 5.66099 0.193002 12.8195
1497 1 6.67077 0.469646 12.6765
621 1 4.2912 1.99803 14.4298
516 1 4.36863 1.91827 13.3293
430 1 5.96281 2.2001 12.553
509 1 5.81406 2.10324 13.5667
514 1 5.32297 2.37938 14.3835
474 1 6.2986 4.2771 12.2649
519 1 3.67512 3.19093 14.4232
468 1 4.58639 3.47253 12.3121
574 1 6.26925 2.84096 14.2698
617 1 4.51997 2.89508 14.9002
475 1 4.53338 2.81393 13.8733
2471 1 4.01667 2.91883 13.0154
518 1 5.49959 3.30918 13.8004
580 1 5.51982 3.32664 14.8152
504 1 4.64256 3.65262 13.3099
523 1 5.28011 2.93324 12.8622
585 1 4.70449 3.72912 14.3183
419 1 5.44185 3.99376 12.7454
623 1 5.4061 4.41086 14.7778
627 1 5.33481 4.32241 13.7472
573 1 6.21707 3.96899 14.278
571 1 6.28644 4.20266 13.3231
2416 1 6.07851 3.28331 12.307
564 1 6.32486 2.90688 13.2532
685 1 6.29579 2.86758 15.2878
622 1 6.21034 3.91739 15.3128
6638 1 1.24731 13.2548 13.1879
6535 1 1.13292 13.2011 15.1995
6575 1 1.22853 13.2394 14.1863
3556 1 6.41711 12.2867 13.8571
3508 1 5.64368 11.8275 14.3248
2492 1 5.70446 11.7983 13.3086
2494 1 5.69492 11.8018 12.2836
3452 1 5.42758 12.6781 12.8144
2493 1 5.4118 12.6799 13.8026
3553 1 5.42913 12.7219 14.8341
1464 1 4.40159 13.031 12.8218
2547 1 4.38214 13.0253 13.8826
1560 1 4.39868 13.0855 14.887
3469 1 6.16312 13.2056 14.3234
3457 1 6.17179 13.2258 12.3085
3415 1 6.18565 13.1898 13.3055
2636 1 6.43651 12.3317 14.8533
2541 1 6.45589 12.3142 12.8041
3567 1 5.18482 13.5968 14.3431
3606 1 5.17573 13.5833 12.3331
1559 1 5.15684 13.559 13.3413
6620 1 0.730041 1.53328 17.5365
671 1 0.724188 1.50457 16.5214
6474 1 0.689038 1.64975 15.5305
707 1 3.9412 1.44612 18.0301
611 1 4.03026 1.24094 15.9879
6665 1 3.95245 1.30554 17.0113
658 1 4.69913 0.830932 17.5799
659 1 4.72962 0.739513 16.5596
563 1 4.82687 0.67795 15.5178
551 1 5.94167 1.62803 15.5195
561 1 4.93821 1.63735 17.0203
652 1 5.91561 1.67084 16.5661
706 1 5.84262 1.71027 17.5876
513 1 5.05686 1.59644 15.9974
663 1 6.38202 0.357509 17.6623
552 1 6.5767 0.404414 15.6746
560 1 5.68972 0.78108 16.0808
2656 1 6.4897 0.379551 16.6819
603 1 5.60474 0.815157 17.0989
1699 1 5.58092 0.856482 18.1034
606 1 4.93643 1.7521 18.036
721 1 4.30751 2.06651 15.4493
727 1 4.25087 2.14768 16.4436
664 1 4.20215 2.25386 17.4691
565 1 5.28901 2.44538 15.4087
618 1 5.26666 2.52271 16.4196
718 1 5.20511 2.55822 17.4366
568 1 3.65449 3.05991 15.4109
684 1 3.59316 3.13607 17.4043
630 1 4.71652 3.83697 15.3268
668 1 3.59219 3.23938 16.3776
2736 1 6.25187 2.85983 17.3661
579 1 6.2503 2.89406 16.3373
6695 1 6.31151 3.96165 17.3373
589 1 6.28919 3.98005 16.3355
607 1 4.53966 2.99688 15.8992
717 1 4.50057 3.11127 16.8984
662 1 4.50896 3.17114 17.9022
729 1 5.55077 3.46459 17.8888
614 1 5.48968 3.42569 16.8778
680 1 5.48662 3.39783 15.85
2662 1 4.75635 3.95041 16.3378
629 1 4.80542 4.00049 17.3615
632 1 5.54337 4.5046 16.8188
728 1 5.47326 4.43231 15.8185
672 1 5.55168 4.54879 17.8522
6785 1 6.29115 4.0352 18.3724
687 1 0.934824 13.2048 17.2254
6680 1 0.8491 13.1406 18.2442
529 1 1.01573 13.2051 16.2092
2646 1 5.43594 12.7036 15.8717
750 1 3.46837 13.5906 17.4342
2592 1 5.25941 13.5985 17.435
2746 1 5.48464 12.7243 17.9396
3603 1 5.73952 11.8439 17.4067
700 1 4.35315 13.6189 17.9708
3604 1 6.20586 13.2131 16.37
3601 1 5.20751 13.5783 15.3671
2546 1 4.36983 13.1812 15.9377
2588 1 5.71012 11.8317 16.3758
2647 1 5.43899 12.7076 16.9186
1605 1 5.71106 11.8276 15.3498
2638 1 6.47945 12.3373 16.8912
2596 1 6.17003 13.2048 15.3254
1655 1 5.19676 13.5803 16.3978
2693 1 6.48785 12.3261 17.8913
2597 1 4.37351 13.3673 16.9518
2542 1 6.45782 12.3373 15.8587
3602 1 6.23813 13.2209 17.3819
6671 1 0.739609 1.5868 18.5879
6859 1 0.124521 0.0539794 20.6719
6763 1 0.0995988 0.0165325 19.6323
661 1 3.89171 1.51137 19.041
6820 1 3.82687 1.54512 20.0517
6870 1 3.86272 1.66899 21.0895
811 1 4.53757 1.03856 20.6192
712 1 4.64606 0.942614 18.5728
6815 1 4.57913 0.963592 19.552
657 1 5.81206 1.77228 19.5935
761 1 5.77561 1.75664 20.6062
713 1 5.81563 1.81427 18.5953
605 1 5.46595 0.927491 20.1245
665 1 5.52686 0.885082 19.1045
762 1 4.90356 1.80982 19.0196
716 1 4.89859 1.85346 20.0524
768 1 6.36344 0.427865 18.6634
1850 1 6.29181 0.381782 19.673
6810 1 5.42316 0.83566 21.1178
2802 1 6.31495 0.623163 20.6356
723 1 4.88145 1.96973 21.0992
6759 1 4.18305 2.36225 18.4692
2832 1 6.75103 2.00011 20.9153
2797 1 6.79864 2.08165 19.8397
673 1 4.1725 2.39754 19.5221
719 1 4.16191 2.47147 20.5421
829 1 6.19356 2.72063 20.4085
778 1 5.18128 2.66074 18.4866
763 1 5.15904 2.72554 19.4729
834 1 6.11159 2.61423 21.4277
726 1 3.41709 3.16669 20.3812
782 1 3.55075 3.22086 18.3893
884 1 3.48124 3.15327 19.3753
745 1 6.22432 2.82399 19.3849
872 1 5.13772 2.78995 20.4893
756 1 4.3576 3.31479 19.9675
722 1 4.1379 3.68539 20.9247
703 1 4.45933 3.24885 18.9281
669 1 4.89959 4.06886 19.4284
679 1 4.96644 4.05378 20.4636
835 1 5.70846 3.48734 20.9561
773 1 5.64774 3.49926 19.9565
775 1 5.59362 3.51554 18.9362
787 1 5.70535 4.56987 20.9472
626 1 5.59027 4.62571 18.8926
827 1 5.62981 4.62936 19.9244
772 1 6.36057 4.06961 19.4094
2721 1 6.40436 4.03378 20.4254
871 1 3.71168 2.88191 21.4067
609 1 4.85554 4.01665 18.4003
769 1 4.76212 2.97336 21.426
724 1 6.23659 2.84581 18.3796
820 1 2.46468 13.581 20.978
866 1 0.811865 13.1202 20.2745
667 1 0.798702 13.1327 19.2655
6788 1 1.16635 12.8415 21.197
688 1 2.5191 13.6122 18.9185
738 1 2.50516 13.5655 19.9226
2896 1 3.38307 13.6462 20.5176
800 1 3.42015 13.6908 19.4644
682 1 1.49081 13.7817 19.8197
1765 1 6.23524 13.2027 18.4309
845 1 4.3108 13.6633 21.0005
2696 1 5.26473 13.5931 18.4628
3653 1 6.47532 12.3534 19.9303
2643 1 5.43054 12.7226 19.9468
2737 1 5.43682 12.7015 20.9597
3811 1 5.463 12.7047 18.9562
2748 1 5.74828 11.8291 20.4415
3557 1 5.70173 11.8214 19.4441
1654 1 6.2338 13.2323 19.424
3752 1 6.17162 13.2407 20.4412
2794 1 6.48063 12.2684 18.8956
2743 1 6.4246 12.3888 20.9592
2747 1 5.23677 13.6112 19.4673
1704 1 4.33528 13.6522 18.9866
850 1 5.19841 13.606 20.4895
2698 1 5.65029 11.8414 18.4255
2742 1 4.32858 13.6386 19.9943
638 1 3.46119 13.6575 18.4517
6910 1 0.120982 0.116721 21.6881
6919 1 0.0552027 0.148534 23.7766
6819 1 0.130762 0.159241 22.7353
868 1 6.75251 1.98235 22.9944
795 1 6.76843 1.94902 21.953
767 1 4.23682 2.16417 21.939
862 1 4.19074 2.22913 22.9705
6869 1 4.1362 2.2755 24.012
1896 1 4.74719 1.56976 23.5654
807 1 4.78592 1.49494 22.5461
6860 1 4.55325 1.12514 21.6387
801 1 5.39698 0.83885 23.0858
851 1 5.2759 0.889658 24.1045
757 1 5.44744 0.808511 22.1085
1891 1 5.88375 1.62458 22.5541
911 1 6.31788 0.87461 24.0857
966 1 5.86384 1.64068 23.5416
7944 1 5.91662 1.56954 21.5689
803 1 5.2586 2.26843 21.9854
861 1 5.27707 2.30993 23.0047
817 1 5.2427 2.34281 24.0308
874 1 6.72036 1.92949 24.0455
879 1 6.1405 2.63655 22.4467
870 1 6.13711 2.64688 23.4831
853 1 5.76019 0.0707226 23.6359
822 1 4.97362 4.04719 21.4648
770 1 6.54501 3.89078 21.4454
816 1 3.65474 2.94088 22.4306
880 1 3.60365 2.95703 23.4716
873 1 6.41676 3.68804 23.5146
732 1 4.12782 3.68704 21.927
863 1 4.07313 3.7508 23.9962
932 1 4.11549 3.72442 22.9739
933 1 4.95274 4.03937 23.4755
824 1 4.98798 4.01599 22.4651
819 1 4.69679 3.01894 23.4696
922 1 4.69347 2.96456 22.4508
830 1 5.61863 3.36897 21.9391
823 1 5.85447 4.36823 22.9693
926 1 5.77792 4.39646 23.9826
2932 1 5.55162 3.35762 24.0108
774 1 5.56033 3.34155 22.9649
2876 1 5.82762 4.44629 21.971
875 1 6.44504 3.74584 22.4661
916 1 0.795689 13.6866 21.6508
876 1 0.725292 13.6539 22.7176
6783 1 1.24367 12.9284 22.2176
6795 1 2.47281 13.293 23.9874
793 1 2.41632 13.5918 22.0042
844 1 3.30536 13.6249 22.5131
839 1 2.39885 13.6444 23.0249
2791 1 3.32521 13.6404 21.513
894 1 3.32452 13.5908 23.5303
878 1 0.647048 13.6125 23.7054
927 1 1.5587 13.7528 24.1424
2897 1 4.23193 13.6085 23.0246
2792 1 6.2167 13.2623 21.4609
2831 1 5.69797 11.8249 21.449
2796 1 5.71076 11.8656 22.4578
2898 1 5.6702 11.8854 23.5154
2741 1 5.46982 12.7424 21.9736
2944 1 5.43003 12.7603 24.0356
2793 1 5.39719 12.7177 22.9848
2842 1 6.14268 13.2825 23.4982
2846 1 6.162 13.2918 22.4848
2843 1 6.45289 12.3905 21.9593
3803 1 6.40744 12.3947 24.0159
2847 1 6.41238 12.4514 22.9998
2838 1 5.14632 13.6134 22.511
950 1 5.14397 13.5966 23.5047
799 1 5.21106 13.6409 21.5056
989 1 4.22773 13.6334 24.0698
2841 1 4.25529 13.6115 21.9977
6965 1 0.0272747 0.259064 25.8125
116 1 0.123098 2.09539 27.2483
6065 1 0.198345 1.26806 26.6826
6915 1 0.105566 0.185575 24.7974
923 1 6.10603 2.66229 24.5321
6010 1 4.1238 2.3327 25.0615
80 1 6.67783 1.9947 26.075
983 1 6.73623 1.96 25.0778
857 1 5.79759 0.148006 24.6465
6060 1 3.83494 1.38239 27.1436
959 1 5.80939 0.241446 25.6283
1046 1 4.43982 0.664351 26.6295
962 1 4.37811 0.622918 25.6064
901 1 4.7272 1.62825 24.5678
6009 1 4.73419 1.6329 25.5692
6014 1 4.72992 1.69065 26.5986
961 1 5.28003 0.92908 25.1011
52 1 5.31678 0.986037 27.1338
1 1 5.27995 0.957592 26.1214
806 1 5.83499 1.65855 24.562
856 1 5.81524 1.68491 25.5681
956 1 6.34471 0.963468 26.1236
1991 1 6.37864 0.910553 25.0918
957 1 5.80651 0.216012 26.6555
7 1 6.37263 0.953876 27.1526
907 1 5.81966 1.71732 26.6221
967 1 4.16904 2.40117 26.0846
2976 1 6.67565 2.04393 27.1023
913 1 4.15951 2.35723 27.1257
6925 1 5.24991 2.38658 25.038
54 1 5.23569 2.45926 27.1002
915 1 5.25179 2.40821 26.0447
869 1 6.09093 2.68315 25.5459
980 1 6.07875 2.72071 26.5798
6879 1 3.22031 4.21854 26.5693
982 1 4.92598 4.06083 24.5037
953 1 4.61798 3.06075 24.52
6880 1 3.5385 2.99596 24.5289
918 1 6.38696 3.73407 24.5334
73 1 4.95544 4.16582 27.5476
978 1 3.56977 3.04753 25.5548
917 1 3.57801 3.09836 26.5683
28 1 4.05336 3.85268 26.026
912 1 4.08979 3.78524 25.0257
973 1 4.07935 3.84873 27.0549
867 1 4.6755 3.09975 25.5221
972 1 4.66569 3.15932 26.5386
22 1 4.9298 4.13978 25.5266
77 1 4.96311 4.1503 26.5315
931 1 5.76447 4.43994 24.9646
18 1 5.52689 3.43209 26.0268
2026 1 5.55932 3.45099 27.0548
34 1 5.48749 3.37423 25.0057
67 1 5.79817 4.51229 27.0542
971 1 5.80763 4.47848 26.0113
6835 1 6.40835 3.77711 25.5368
930 1 6.36471 3.7939 26.5265
32 1 1.75008 13.7497 27.1946
2892 1 3.29743 13.6402 24.5633
2091 1 3.32067 13.6258 26.6052
889 1 3.3133 13.6751 25.5944
993 1 1.68392 13.7602 26.1979
976 1 1.67038 13.7558 25.1595
1905 1 5.14678 13.6023 24.5511
2941 1 4.20528 13.6761 26.0786
2888 1 5.65268 11.9038 24.529
1855 1 6.10881 13.2792 25.555
995 1 4.21591 13.649 25.0652
1859 1 5.10584 13.6276 25.5654
1907 1 5.09741 13.5827 26.5695
2992 1 6.36277 12.3441 27.0868
2047 1 6.36937 12.38 26.055
2997 1 5.35903 12.7259 26.0781
2947 1 5.63611 11.8593 25.5595
899 1 6.14619 13.3016 24.543
2943 1 5.35396 12.7249 25.0699
2993 1 5.33899 12.7133 27.0887
3851 1 5.6371 11.8404 26.5692
2942 1 6.38131 12.4075 25.0383
2043 1 6.08783 13.2348 26.586
3956 1 6.8459 13.7795 26.0742
6050 1 0.152658 15.711 0.738199
986 1 1.07609 15.5896 0.167607
46 1 1.14059 15.5978 2.20293
86 1 0.175261 15.6547 1.73992
126 1 0.231241 15.6126 2.76171
6045 1 1.10552 15.5557 1.19031
42 1 2.01354 15.4385 0.644976
93 1 2.05915 15.4783 1.64728
91 1 2.08322 15.4404 2.66542
97 1 2.87204 15.3878 0.0854214
92 1 2.94303 15.3769 1.07625
142 1 2.97706 15.3776 2.08995
6983 1 0.379142 14.7957 0.178125
6034 1 0.458484 14.7786 2.20771
166 1 0.393473 14.7629 1.20218
6080 1 2.27638 14.5666 2.12177
182 1 1.37818 14.6669 2.67192
117 1 1.31599 14.6857 0.65214
129 1 1.35922 14.7017 1.65891
6029 1 2.27207 14.5234 1.09977
21 1 2.20408 14.5592 0.0939016
1958 1 2.74869 16.2741 1.58065
1957 1 2.75776 16.2811 0.584651
197 1 2.76271 16.2673 2.60307
149 1 3.18991 14.5333 0.605959
1104 1 3.21445 14.5169 1.59132
200 1 3.21489 14.5005 2.58569
7110 1 1.63382 16.3674 2.72705
998 1 0.965258 13.8489 1.19219
963 1 0.879661 13.8331 0.179685
121 1 1.00824 13.8379 2.17071
3052 1 6.54009 14.6367 2.08839
1113 1 5.59559 15.0053 1.05745
1108 1 5.53291 15.0149 2.06391
1114 1 3.98409 14.9851 1.04557
1054 1 4.00167 15.0391 2.06617
2143 1 4.78761 14.5003 0.555213
3151 1 4.78094 14.4645 2.57226
3002 1 5.82969 14.1352 0.587319
2096 1 5.84963 14.1448 1.58682
1005 1 5.796 14.1467 2.60483
1009 1 4.76477 14.4794 1.56185
35 1 3.95261 13.9606 2.07959
3056 1 6.5875 14.6421 1.05964
1004 1 5.53875 14.9942 0.0221631
99 1 3.65211 13.7896 0.00920717
1055 1 3.85918 13.8995 1.05598
3957 1 6.56316 14.66 0.0423558
47 1 2.23382 17.0584 1.06081
98 1 2.25202 17.0314 2.11474
997 1 2.22979 17.0506 0.0337404
1968 1 1.97478 17.8973 1.58021
1063 1 1.91355 17.925 0.567313
1107 1 1.94616 17.8568 2.61311
1067 1 2.82601 18.0001 1.03885
1051 1 2.87923 17.904 2.06743
1057 1 2.52408 18.7524 2.55656
1058 1 3.32806 18.9291 1.01388
148 1 3.40694 18.8946 2.00129
1912 1 2.82567 18.0805 0.028131
1962 1 3.37113 18.9855 0.0168986
1068 1 3.72915 18.1301 0.509286
1111 1 3.78154 18.0469 1.50823
1075 1 3.77064 18.0921 2.5707
96 1 4.43086 18.6926 2.0379
1002 1 4.42791 18.723 0.99304
1071 1 3.23767 19.9727 1.99929
1022 1 3.25324 19.9625 0.990889
1121 1 2.84757 20.8027 2.49605
1918 1 2.90706 20.8118 1.51415
1027 1 2.93518 20.823 0.506527
1928 1 2.52541 21.6152 1.00762
1127 1 2.45793 21.6139 2.00587
1122 1 2.368 21.5813 3.01157
7875 1 2.5125 21.6768 0.000317676
1143 1 3.54693 21.4525 2.03342
1036 1 3.58628 21.4231 1.00805
1093 1 3.49877 21.4487 3.04553
1120 1 5.12578 19.3316 1.54727
3066 1 5.10798 19.3252 0.49496
1119 1 5.08129 19.3758 2.54825
7070 1 4.05431 19.5128 1.51401
7015 1 4.07798 19.5516 0.508511
1183 1 4.0742 19.5115 2.55172
1021 1 3.95663 20.6229 0.510158
1016 1 3.90152 20.5655 1.52312
1038 1 3.9023 20.5893 2.53889
1028 1 4.74957 20.1618 1.02431
1023 1 4.70028 20.1865 2.04644
3011 1 5.83559 19.8425 1.01172
1015 1 5.81786 19.9831 2.02137
3963 1 6.66154 20.2792 1.48457
1965 1 6.59491 20.3347 0.478875
3072 1 6.66471 20.2568 2.50336
3126 1 6.152 21.0275 2.00659
1085 1 6.16303 21.0984 1.00523
3121 1 6.35045 21.9374 2.54736
3961 1 6.2596 21.9811 1.56079
1069 1 6.21225 22.031 0.540578
1125 1 6.15913 21.0152 3.03449
3022 1 5.7925 20.0282 3.05121
1137 1 4.67864 20.1714 3.06273
1076 1 3.13326 22.2596 1.528
7130 1 3.07746 22.2098 2.51325
1971 1 3.16194 22.2486 0.530935
7144 1 3.17729 23.1378 3.05311
1186 1 3.57846 23.0671 1.10479
7039 1 3.66142 23.0562 0.0764825
7985 1 3.46558 23.0755 2.10205
7095 1 3.87052 23.9308 0.651341
7134 1 3.86305 23.9008 1.69279
7145 1 3.8701 23.8396 2.71141
3167 1 6.54629 22.8846 2.05909
2160 1 6.53023 22.8933 1.07098
1185 1 6.19637 23.7074 2.63345
1083 1 6.14413 23.7506 0.581631
1976 1 4.55915 24.4326 2.21106
7975 1 4.58759 24.513 1.19233
1072 1 4.58489 24.531 0.177139
1178 1 5.48753 24.5053 2.6853
1140 1 5.48845 24.5453 1.67905
1134 1 5.49648 24.5886 0.64695
1191 1 3.55754 24.7673 2.23328
1131 1 3.49494 24.7555 1.22102
1039 1 6.41116 24.6157 1.11739
1081 1 6.43102 24.6069 2.16228
1989 1 6.41662 24.6421 0.0900226
1035 1 6.5091 22.9149 0.0495537
6054 1 0.336314 27.3732 0.157544
7048 1 0.321791 27.4211 1.17946
1982 1 3.19632 25.633 0.722647
7147 1 3.21382 25.6386 1.76207
7089 1 2.70197 26.3981 1.26652
7035 1 2.78772 26.4636 0.234607
1197 1 2.64034 26.3629 2.26766
7093 1 2.08161 25.7662 0.672236
1292 1 2.1453 25.6408 1.6834
1146 1 2.17024 25.5976 2.80568
1097 1 1.77145 26.7011 0.295827
1147 1 1.57478 26.2889 2.26526
7143 1 1.64798 26.5127 1.28285
7094 1 0.807867 26.6834 2.77036
1141 1 0.743695 26.607 1.73255
6059 1 0.805741 26.6212 0.712281
1091 1 2.2954 27.2059 1.80384
1086 1 2.02098 27.0683 2.7771
7142 1 2.47562 27.3218 0.82209
7150 1 0.317426 27.4431 2.21244
1149 1 3.35489 26.9854 1.81559
1098 1 3.44491 27.0072 0.815434
1142 1 3.39835 26.8338 2.80581
955 1 6.66353 27.5243 0.610419
1092 1 3.55396 24.8146 0.187908
1042 1 3.85568 26.2047 1.26236
1031 1 3.89198 26.234 0.256379
1087 1 3.93859 26.1766 2.26755
1032 1 4.25754 25.3619 0.719079
103 1 4.25097 25.3374 1.71872
1037 1 4.28456 25.3018 2.73366
1144 1 4.80923 26.2138 1.73401
106 1 4.79235 26.3081 0.738258
1095 1 4.81087 26.2321 2.7422
1133 1 5.16113 25.4029 1.20931
1130 1 5.17313 25.392 2.2299
58 1 5.16712 25.465 0.182181
1145 1 5.72175 26.3039 2.22365
1139 1 5.74397 26.2843 1.18497
1088 1 5.68162 26.3849 0.176197
3091 1 6.61368 26.4108 0.686715
3191 1 6.64344 26.388 2.67816
3077 1 6.07836 25.4367 1.68164
1040 1 6.09295 25.4963 0.624808
2102 1 6.62446 26.3363 1.66444
1249 1 6.09117 25.4743 2.71834
1045 1 6.68588 27.5636 1.65927
6319 1 0.00420102 14.2436 5.90643
6134 1 1.01591 13.8066 4.17834
173 1 1.03653 13.8035 5.21668
83 1 1.19253 15.553 3.24565
297 1 2.70423 16.1966 5.66572
249 1 0.357468 15.6707 5.85646
6090 1 0.306393 15.6361 3.80737
247 1 0.332064 15.6313 4.81044
133 1 1.2655 15.5579 4.23799
171 1 1.28439 15.5214 5.24162
238 1 2.12595 15.3966 3.69458
192 1 2.17244 15.3895 4.69492
243 1 2.18135 15.324 5.72206
81 1 3.01256 15.3879 3.15826
176 1 0.54637 14.7437 4.24517
6095 1 0.508412 14.7492 3.22651
31 1 0.617918 14.7724 5.27408
221 1 1.52375 14.5104 5.76364
6175 1 1.46955 14.6139 4.72523
26 1 1.43783 14.6486 3.69084
184 1 2.35494 14.5504 3.14037
288 1 2.3992 14.4561 5.19491
234 1 2.35637 14.4775 4.18581
193 1 3.02861 15.3309 4.1688
199 1 3.09342 15.3419 5.18989
147 1 1.69907 16.3564 3.71854
242 1 2.78897 16.2543 4.65181
292 1 1.70644 16.3792 4.74947
298 1 2.78029 16.2714 3.65785
140 1 3.29471 14.4868 3.60675
87 1 0.998915 13.8273 3.17195
2191 1 3.29207 14.473 4.66202
284 1 3.30653 14.4491 5.68856
1214 1 1.6817 16.4447 5.77468
3018 1 6.52685 14.6319 3.1152
1159 1 6.58473 14.6414 5.13219
1053 1 3.99787 15.0399 3.10221
1153 1 5.58536 15.01 3.10901
1155 1 4.01741 13.9541 4.12243
1253 1 4.0813 15.0157 5.16955
1109 1 5.4983 14.9665 4.10307
1164 1 5.61342 15.0125 5.15566
1103 1 4.05611 15.04 4.16961
1208 1 4.8385 14.472 5.66797
1203 1 4.79816 14.4415 4.63764
3258 1 5.85234 14.1123 5.67846
2146 1 4.7501 14.4783 3.61813
2243 1 5.80652 14.0929 4.62071
244 1 5.80204 14.0782 3.60701
1154 1 3.99699 13.9455 3.09348
299 1 4.07378 13.9391 5.16908
3061 1 6.57753 14.6511 4.12671
1116 1 3.41678 18.895 3.06662
1112 1 2.90041 17.9172 3.09686
291 1 2.34111 17.0536 4.17264
1202 1 2.35195 17.0472 5.16852
1157 1 2.31455 17.0655 3.16009
7209 1 2.0088 17.8945 4.6314
1201 1 1.97076 17.9169 3.63322
1362 1 1.99117 17.9182 5.68183
1106 1 2.53848 18.8142 3.59032
7159 1 2.52793 18.7969 4.61682
1158 1 2.50183 18.8293 5.62208
1166 1 2.92609 17.9632 5.16736
1163 1 2.87996 17.9777 4.13879
1218 1 3.43153 18.9178 4.08371
7165 1 3.4002 18.9692 5.10465
1267 1 3.41715 18.9375 6.09855
1126 1 4.47472 18.7218 3.06677
1168 1 3.77666 18.0729 3.61129
1152 1 3.80304 18.1057 4.61489
1225 1 3.87387 18.0934 5.64455
1161 1 4.42616 18.7957 5.08581
1101 1 4.49715 18.7047 4.06812
1117 1 3.24986 19.9383 3.07777
7279 1 3.23471 20.0345 5.0644
7160 1 3.2508 19.9723 4.06695
7215 1 2.57055 20.685 5.51898
1177 1 2.82194 20.7647 3.54166
1176 1 2.75869 20.7916 4.54308
7210 1 2.36526 21.5939 5.04229
7214 1 2.36676 21.6116 4.03357
1182 1 3.21049 21.3423 6.05906
1187 1 3.41605 21.4604 5.05392
1228 1 3.1721 19.9978 6.08988
1138 1 3.46459 21.4723 4.05239
1123 1 5.16005 19.3766 3.55311
1169 1 5.10049 19.4083 5.5829
1213 1 5.13055 19.3678 4.57882
1012 1 4.08127 19.523 3.55788
1162 1 4.04177 19.6012 4.56821
7225 1 4.05054 19.6001 5.59916
7069 1 3.88931 20.622 3.56373
1272 1 3.91265 20.6521 4.57404
1217 1 3.85426 20.649 5.58894
1078 1 4.69342 20.1996 4.06239
1172 1 4.74076 20.2414 5.08455
1065 1 5.79088 20.0262 4.06405
248 1 5.99628 19.6667 5.07014
1165 1 5.5844 20.4409 5.61785
3171 1 6.71501 20.2511 4.58067